 Box 3: 0,1,0
Self 0 0:      28.06468585
Self 0 1:      68.44114460
Self 0 2:     249.61573872
Self 0 3:      30.87946263
Self 0 4:      28.96625785
Self 0 5:      51.70917224
Self 0 6:      28.69999041
Self 0 7:      26.80816657
Self 0 8:      28.57385445
 Box 5: 1,0,0
Self 0 0:     -10.98360922
Self 0 1:       2.70805547
Self 0 2:       3.03510755
Self 0 3:       2.28432202
Self 0 4:      -7.40284112
Self 0 5:    1232.49312372
Self 0 6:   16574.36753167
Self 0 7:    5926.63688171
Self 1 0:     -17.54962202
Self 1 1:     -15.09545065
Self 1 2:     -10.04033888
Self 1 3:      -3.83784064
Self 1 4:      -3.60595150
Self 1 5:      25.96139200
Self 1 6:      13.24770322
Self 1 7:       3.69192459
Self 1 8:       4.65384727
Pair 0 0, 1 0:       0.38120148
Pair 0 0, 1 1:       0.47078949
Pair 0 0, 1 2:       0.42563837
Pair 0 0, 1 3:       0.12118870
Pair 0 0, 1 4:       0.25673371
Pair 0 0, 1 7:       0.14254730
Pair 0 0, 1 8:       0.34781265
Pair 0 1, 1 0:       0.20613156
Pair 0 1, 1 1:       0.21189880
Pair 0 1, 1 2:       0.20292125
Pair 0 1, 1 3:       0.09946522
Pair 0 1, 1 4:       0.17118047
Pair 0 1, 1 7:      -0.39135824
Pair 0 1, 1 8:      -0.17083009
Pair 0 2, 1 0:       0.23758030
Pair 0 2, 1 1:       0.22763802
Pair 0 2, 1 2:       0.28946071
Pair 0 2, 1 3:       0.43618353
Pair 0 2, 1 4:       0.54810631
Pair 0 2, 1 7:       0.11533275
Pair 0 2, 1 8:       0.33907407
Pair 0 3, 1 0:       0.37632162
Pair 0 3, 1 1:       0.50030979
Pair 0 3, 1 2:       0.43672054
Pair 0 3, 1 3:      -0.03322317
Pair 0 3, 1 4:       0.13530921
Pair 0 3, 1 7:       0.00588907
Pair 0 3, 1 8:       0.23870134
Pair 0 4, 1 0:      -0.02393728
Pair 0 4, 1 1:      -0.02111617
Pair 0 4, 1 2:      -0.00980891
Pair 0 4, 1 3:      -0.17376241
Pair 0 4, 1 4:      -0.07986297
Pair 0 4, 1 7:       0.14582524
Pair 0 4, 1 8:       0.30347876
 Box 7: 1,1,0
Self 0 0:     -12.59404946
Self 0 1:   60994.03849806
Self 0 2:   60499.66660238
Self 0 3:      27.93967473
Self 0 4:      30.14445644
Self 0 5:     -20.99113740
Self 0 6:     -20.44130108
Self 0 7:     -15.66134992
Self 0 8:     -14.51769771
Self 1 0:      -4.90647866
Self 1 1:      -0.74586551
Self 1 2:      -2.27980681
Self 1 3: 4196314.10149951
Self 1 4: 4186353.15284405
Self 1 5:      -2.45466569
Self 1 6:      -3.61386757
Self 1 7:      94.81580383
Self 1 8:      94.31893792
Self 2 0:      10.40548123
Self 2 1:      61.12322897
Self 2 2:      61.12322897
Self 2 3:      24.71456077
Self 2 4:      24.71456077
Self 2 5:     233.27164951
Self 3 0:      -0.40576867
Self 3 1:       4.39960168
Self 3 2:       4.15921843
Self 3 3:       1.21787388
Self 3 4:      -0.10785191
Self 3 5:       0.90204353
Self 3 6:       1.73174373
Self 3 7:      13.22630520
Self 3 8:      17.52129540
Self 3 9:      18.52316912
Self 3 10:      19.26324737
Self 3 11:      12.12604759
Self 3 12:      21.22618399
Self 3 13:       8.73508528
Self 3 14:       5.83625252
Self 3 15:       7.27762378
Self 3 16:       8.70860352
Self 3 17:       7.84154253
Self 3 18:      11.36745348
Self 4 0:       4.02810551
Self 4 1:       5.86030976
Self 4 2:       0.98680527
Self 4 3:       3.10887144
Self 4 4:       4.47106075
Self 4 5:       6.22655937
Self 4 6:       6.75456352
Self 4 7:      15.15098056
Self 4 8:       8.23320351
Self 4 9:       6.48087119
Self 4 10:       6.40869552
Self 4 11:       3.30248000
Self 4 12:       5.80943572
Self 4 13:       8.47817720
Self 4 14:       4.25637177
Self 4 15:       6.51721051
Self 4 16:       8.81556117
Self 4 17:       8.45094068
Self 4 18:      11.90916574
Pair 0 0, 1 0:      -0.15176303
Pair 0 0, 1 1:      -0.49719797
Pair 0 0, 1 2:      -0.39161731
Pair 0 0, 1 5:      -0.25414952
Pair 0 0, 1 6:      -0.12656364
Pair 0 0, 2 0:      -3.66846587
Pair 0 0, 2 3:      -3.39813507
Pair 0 0, 2 4:      -3.39813507
Pair 0 5, 1 0:      -0.13738311
Pair 0 5, 1 1:      -0.54029108
Pair 0 5, 1 2:      -0.40344308
Pair 0 5, 1 5:      -0.25277827
Pair 0 5, 1 6:      -0.10918831
Pair 0 5, 2 0:      -3.42933200
Pair 0 5, 2 3:      -3.21492220
Pair 0 5, 2 4:      -3.21492220
Pair 0 6, 1 0:      -0.14451978
Pair 0 6, 1 1:      -0.53213908
Pair 0 6, 1 2:      -0.46863700
Pair 0 6, 1 5:      -0.24151573
Pair 0 6, 1 6:      -0.12253182
Pair 0 6, 2 0:      -3.37674344
Pair 0 6, 2 3:      -3.21206767
Pair 0 6, 2 4:      -3.21206767
Pair 0 7, 1 0:      -0.15414697
Pair 0 7, 1 1:      -0.50749474
Pair 0 7, 1 2:      -0.36940239
Pair 0 7, 1 5:      -0.25225764
Pair 0 7, 1 6:      -0.13417713
Pair 0 7, 2 0:      -3.57552180
Pair 0 7, 2 3:      -3.33070697
Pair 0 7, 2 4:      -3.33070697
Pair 0 8, 1 0:      -0.20304164
Pair 0 8, 1 1:      -0.49908848
Pair 0 8, 1 2:      -0.43692701
Pair 0 8, 1 5:      -0.26650332
Pair 0 8, 1 6:      -0.19513469
Pair 0 8, 2 0:      -3.38628089
Pair 0 8, 2 3:      -3.17791415
Pair 0 8, 2 4:      -3.17791415
Pair 1 0, 2 0:      -3.36464754
Pair 1 0, 2 3:      -3.46327573
Pair 1 0, 2 4:      -3.46327573
Pair 1 1, 2 0:      -3.48827264
Pair 1 1, 2 3:      -3.65168856
Pair 1 1, 2 4:      -3.65168856
Pair 1 2, 2 0:      -4.50920600
Pair 1 2, 2 3:      -4.82241631
Pair 1 2, 2 4:      -4.82241631
Pair 1 5, 2 0:      -3.15303133
Pair 1 5, 2 3:      -3.25439157
Pair 1 5, 2 4:      -3.25439157
Pair 1 6, 2 0:      -3.40217361
Pair 1 6, 2 3:      -3.50483215
Pair 1 6, 2 4:      -3.50483215
Pair 2 0, 3 0:      -4.15632849
Pair 2 0, 3 1:      -3.25524614
Pair 2 0, 3 2:      -2.51845583
Pair 2 0, 3 3:      -3.16491993
Pair 2 0, 3 4:      -4.01506870
Pair 2 0, 3 5:      -6.83328106
Pair 2 0, 3 6:      -6.07832344
Pair 2 0, 3 7:       4.18223732
Pair 2 0, 3 8:       4.65701136
Pair 2 0, 3 9:       5.22274874
Pair 2 0, 3 10:       4.75931015
Pair 2 0, 3 11:       4.28896833
Pair 2 0, 3 12:       4.23789506
Pair 2 0, 3 13:      -3.00897932
Pair 2 0, 3 14:      -4.71037059
Pair 2 0, 3 15:      -4.52189750
Pair 2 0, 3 16:      -2.18659005
Pair 2 0, 3 17:      -2.16712169
Pair 2 0, 3 18:      -1.53576766
Pair 2 3, 3 0:      -4.21667998
Pair 2 3, 3 1:      -0.72077980
Pair 2 3, 3 2:      -0.67013138
Pair 2 3, 3 3:      -1.42942966
Pair 2 3, 3 4:      -4.15692663
Pair 2 3, 3 5:      -8.32802519
Pair 2 3, 3 6:     -11.48568865
Pair 2 3, 3 7:       3.42032353
Pair 2 3, 3 8:       3.72723369
Pair 2 3, 3 9:       4.07345510
Pair 2 3, 3 10:       3.46329031
Pair 2 3, 3 11:       3.26150642
Pair 2 3, 3 12:       2.88514465
Pair 2 3, 3 13:      -2.58858579
Pair 2 3, 3 14:      -5.37385878
Pair 2 3, 3 15:      -6.92311108
Pair 2 3, 3 16:      -3.05930731
Pair 2 3, 3 17:      -2.12780715
Pair 2 3, 3 18:      -1.54576296
Pair 2 4, 3 0:      -4.21667998
Pair 2 4, 3 1:      -0.72077980
Pair 2 4, 3 2:      -0.67013138
Pair 2 4, 3 3:      -1.42942966
Pair 2 4, 3 4:      -4.15692663
Pair 2 4, 3 5:      -8.32802519
Pair 2 4, 3 6:     -11.48568865
Pair 2 4, 3 7:       3.42032353
Pair 2 4, 3 8:       3.72723369
Pair 2 4, 3 9:       4.07345510
Pair 2 4, 3 10:       3.46329031
Pair 2 4, 3 11:       3.26150642
Pair 2 4, 3 12:       2.88514465
Pair 2 4, 3 13:      -2.58858579
Pair 2 4, 3 14:      -5.37385878
Pair 2 4, 3 15:      -6.92311108
Pair 2 4, 3 16:      -3.05930731
Pair 2 4, 3 17:      -2.12780715
Pair 2 4, 3 18:      -1.54576296
Pair 3 0, 4 0:       1.67691166
Pair 3 0, 4 1:      -2.23960823
Pair 3 0, 4 2:      -1.04072057
Pair 3 0, 4 3:      -0.72959614
Pair 3 0, 4 4:       1.03190341
Pair 3 0, 4 5:      -2.22656190
Pair 3 0, 4 6:       1.99056449
Pair 3 0, 4 7:       7.67465635
Pair 3 0, 4 8:       7.79724746
Pair 3 0, 4 9:       7.95882809
Pair 3 0, 4 10:       8.03974686
Pair 3 0, 4 11:       7.76238418
Pair 3 0, 4 12:       7.96405636
Pair 3 0, 4 13:      -0.77646396
Pair 3 0, 4 14:      -0.52955677
Pair 3 0, 4 15:       0.33428699
Pair 3 0, 4 16:      -0.00250610
Pair 3 0, 4 17:      -0.67592184
Pair 3 0, 4 18:      -0.59992050
Pair 3 1, 4 0:       2.57105997
Pair 3 1, 4 1:       0.58537647
Pair 3 1, 4 2:       2.04855413
Pair 3 1, 4 3:       1.97422620
Pair 3 1, 4 4:       1.90580406
Pair 3 1, 4 5:      -4.11332684
Pair 3 1, 4 6:      -0.99031395
Pair 3 1, 4 7:       2.77810087
Pair 3 1, 4 8:       2.77126711
Pair 3 1, 4 9:       2.80757509
Pair 3 1, 4 10:       2.58315854
Pair 3 1, 4 11:       2.53410439
Pair 3 1, 4 12:       2.28538646
Pair 3 1, 4 13:      -1.10627988
Pair 3 1, 4 14:      -1.13849680
Pair 3 1, 4 15:      -1.13693161
Pair 3 1, 4 16:      -1.25396144
Pair 3 1, 4 17:      -1.40587887
Pair 3 1, 4 18:      -1.46115182
Pair 3 2, 4 0:      -0.29304616
Pair 3 2, 4 1:      -0.31635130
Pair 3 2, 4 2:      -0.33982251
Pair 3 2, 4 3:       0.07380068
Pair 3 2, 4 4:      -0.52163674
Pair 3 2, 4 5:       1.73260323
Pair 3 2, 4 6:      -1.38742109
Pair 3 2, 4 7:       6.47505968
Pair 3 2, 4 8:       6.48748624
Pair 3 2, 4 9:       6.42969471
Pair 3 2, 4 10:       6.37513010
Pair 3 2, 4 11:       6.29631332
Pair 3 2, 4 12:       6.26934250
Pair 3 2, 4 13:      -1.26038765
Pair 3 2, 4 14:      -0.89455853
Pair 3 2, 4 15:      -0.80898044
Pair 3 2, 4 16:      -1.39194688
Pair 3 2, 4 17:      -1.40985898
Pair 3 2, 4 18:      -1.51324225
Pair 3 3, 4 0:      -4.06520356
Pair 3 3, 4 1:      -4.71577263
Pair 3 3, 4 2:      -5.39181388
Pair 3 3, 4 3:      -4.66383311
Pair 3 3, 4 4:      -4.07568191
Pair 3 3, 4 5:      16.88877163
Pair 3 3, 4 6:       6.06456022
Pair 3 3, 4 7:      29.19405620
Pair 3 3, 4 8:      29.33264857
Pair 3 3, 4 9:      29.39127598
Pair 3 3, 4 10:      29.62882109
Pair 3 3, 4 11:      29.44047562
Pair 3 3, 4 12:      29.85275235
Pair 3 3, 4 13:      -0.69049556
Pair 3 3, 4 14:       0.17668247
Pair 3 3, 4 15:       1.24364661
Pair 3 3, 4 16:       0.07248926
Pair 3 3, 4 17:      -0.37725984
Pair 3 3, 4 18:      -0.45012678
Pair 3 4, 4 0:       1.29595983
Pair 3 4, 4 1:      -2.29598134
Pair 3 4, 4 2:      -1.20822565
Pair 3 4, 4 3:      -0.91769598
Pair 3 4, 4 4:       0.75205310
Pair 3 4, 4 5:      -2.21262402
Pair 3 4, 4 6:       1.70611604
Pair 3 4, 4 7:       6.74461182
Pair 3 4, 4 8:       6.86835618
Pair 3 4, 4 9:       7.02767909
Pair 3 4, 4 10:       7.11602465
Pair 3 4, 4 11:       6.84087255
Pair 3 4, 4 12:       7.05268984
Pair 3 4, 4 13:      -0.77248197
Pair 3 4, 4 14:      -0.50135103
Pair 3 4, 4 15:       0.37973225
Pair 3 4, 4 16:       0.00853653
Pair 3 4, 4 17:      -0.65924606
Pair 3 4, 4 18:      -0.58496780
Pair 3 5, 4 0:       2.31415360
Pair 3 5, 4 1:      -0.09614290
Pair 3 5, 4 2:       1.91846137
Pair 3 5, 4 3:       1.80684960
Pair 3 5, 4 4:       1.76856958
Pair 3 5, 4 5:      -4.03426114
Pair 3 5, 4 6:      -0.39994133
Pair 3 5, 4 7:       2.72889590
Pair 3 5, 4 8:       2.75646344
Pair 3 5, 4 9:       2.89331387
Pair 3 5, 4 10:       2.68229851
Pair 3 5, 4 11:       2.59481441
Pair 3 5, 4 12:       2.38889200
Pair 3 5, 4 13:      -1.33049439
Pair 3 5, 4 14:      -1.06089755
Pair 3 5, 4 15:      -0.77571401
Pair 3 5, 4 16:      -1.12121292
Pair 3 5, 4 17:      -1.46819346
Pair 3 5, 4 18:      -1.43109378
Pair 3 6, 4 0:       2.56572203
Pair 3 6, 4 1:      -0.11985383
Pair 3 6, 4 2:       1.84223588
Pair 3 6, 4 3:       1.83701570
Pair 3 6, 4 4:       1.98016993
Pair 3 6, 4 5:      -4.69114865
Pair 3 6, 4 6:      -0.90236778
Pair 3 6, 4 7:       2.78029666
Pair 3 6, 4 8:       2.84061646
Pair 3 6, 4 9:       3.00858921
Pair 3 6, 4 10:       2.87136598
Pair 3 6, 4 11:       2.69579662
Pair 3 6, 4 12:       2.59962042
Pair 3 6, 4 13:      -1.26388985
Pair 3 6, 4 14:      -1.04250603
Pair 3 6, 4 15:      -0.69183720
Pair 3 6, 4 16:      -0.89627170
Pair 3 6, 4 17:      -1.33239132
Pair 3 6, 4 18:      -1.23194499
Pair 3 7, 4 0:       5.49328935
Pair 3 7, 4 1:       3.55215095
Pair 3 7, 4 2:       2.33429453
Pair 3 7, 4 3:       2.68175368
Pair 3 7, 4 4:       3.06085952
Pair 3 7, 4 5:      21.00140606
Pair 3 7, 4 6:       8.27991441
Pair 3 7, 4 7:      51.13714688
Pair 3 7, 4 8:      51.09958148
Pair 3 7, 4 9:      50.96237969
Pair 3 7, 4 10:      50.94030379
Pair 3 7, 4 11:      51.03233410
Pair 3 7, 4 12:      50.96968232
Pair 3 7, 4 13:       0.67208238
Pair 3 7, 4 14:      -0.30703932
Pair 3 7, 4 15:      -2.34462364
Pair 3 7, 4 16:      -0.68018232
Pair 3 7, 4 17:       0.22441491
Pair 3 7, 4 18:       0.10067703
Pair 3 8, 4 0:       5.02085974
Pair 3 8, 4 1:       2.96382668
Pair 3 8, 4 2:       1.75887496
Pair 3 8, 4 3:       2.16140156
Pair 3 8, 4 4:       2.62373157
Pair 3 8, 4 5:      20.71032794
Pair 3 8, 4 6:       8.14165411
Pair 3 8, 4 7:      51.06907531
Pair 3 8, 4 8:      51.02051950
Pair 3 8, 4 9:      50.92955380
Pair 3 8, 4 10:      50.97541562
Pair 3 8, 4 11:      51.00182615
Pair 3 8, 4 12:      50.99524342
Pair 3 8, 4 13:       0.56129781
Pair 3 8, 4 14:      -0.94259772
Pair 3 8, 4 15:      -2.17449683
Pair 3 8, 4 16:      -0.15502447
Pair 3 8, 4 17:       0.56419320
Pair 3 8, 4 18:       0.55603688
Pair 3 9, 4 0:       5.37824687
Pair 3 9, 4 1:       2.94155356
Pair 3 9, 4 2:       1.77145732
Pair 3 9, 4 3:       2.31589324
Pair 3 9, 4 4:       2.96511612
Pair 3 9, 4 5:      20.62452841
Pair 3 9, 4 6:       8.15299181
Pair 3 9, 4 7:      51.07488286
Pair 3 9, 4 8:      51.04021356
Pair 3 9, 4 9:      51.01792641
Pair 3 9, 4 10:      51.12242600
Pair 3 9, 4 11:      51.01288227
Pair 3 9, 4 12:      51.07746089
Pair 3 9, 4 13:       0.41166702
Pair 3 9, 4 14:      -1.09824755
Pair 3 9, 4 15:      -2.04628934
Pair 3 9, 4 16:       0.15571632
Pair 3 9, 4 17:       0.50853698
Pair 3 9, 4 18:       0.63278026
Pair 3 10, 4 0:       5.87880998
Pair 3 10, 4 1:       2.32077796
Pair 3 10, 4 2:       1.31757260
Pair 3 10, 4 3:       1.90989369
Pair 3 10, 4 4:       3.36997754
Pair 3 10, 4 5:      20.19212182
Pair 3 10, 4 6:       9.20673171
Pair 3 10, 4 7:      51.16198011
Pair 3 10, 4 8:      51.16139701
Pair 3 10, 4 9:      51.22859827
Pair 3 10, 4 10:      51.43357880
Pair 3 10, 4 11:      51.14101822
Pair 3 10, 4 12:      51.35098935
Pair 3 10, 4 13:      -0.13214634
Pair 3 10, 4 14:      -1.38190977
Pair 3 10, 4 15:      -0.53196004
Pair 3 10, 4 16:       0.73645849
Pair 3 10, 4 17:       0.17641265
Pair 3 10, 4 18:       0.28533931
Pair 3 11, 4 0:       6.94055834
Pair 3 11, 4 1:       5.93829842
Pair 3 11, 4 2:       5.00064064
Pair 3 11, 4 3:       5.32240465
Pair 3 11, 4 4:       5.65779212
Pair 3 11, 4 5:      23.04549074
Pair 3 11, 4 6:      10.66365706
Pair 3 11, 4 7:      50.99728159
Pair 3 11, 4 8:      51.00928037
Pair 3 11, 4 9:      50.92015213
Pair 3 11, 4 10:      50.87519200
Pair 3 11, 4 11:      50.89815597
Pair 3 11, 4 12:      50.88065187
Pair 3 11, 4 13:      -0.88282175
Pair 3 11, 4 14:       1.20669677
Pair 3 11, 4 15:      -0.60436124
Pair 3 11, 4 16:      -2.03008370
Pair 3 11, 4 17:      -1.56693327
Pair 3 11, 4 18:      -1.69375683
Pair 3 12, 4 0:       6.07116359
Pair 3 12, 4 1:       3.79163813
Pair 3 12, 4 2:       3.13542501
Pair 3 12, 4 3:       3.44827756
Pair 3 12, 4 4:       4.74901527
Pair 3 12, 4 5:      21.63802756
Pair 3 12, 4 6:      11.29341211
Pair 3 12, 4 7:      50.85499689
Pair 3 12, 4 8:      50.88795920
Pair 3 12, 4 9:      50.95138564
Pair 3 12, 4 10:      51.08277128
Pair 3 12, 4 11:      50.84712733
Pair 3 12, 4 12:      51.04251134
Pair 3 12, 4 13:      -2.09252493
Pair 3 12, 4 14:      -0.59885779
Pair 3 12, 4 15:       2.43265493
Pair 3 12, 4 16:      -0.75206132
Pair 3 12, 4 17:      -1.60724051
Pair 3 12, 4 18:      -1.84290357
Pair 3 13, 4 0:       7.24820056
Pair 3 13, 4 1:      19.44805392
Pair 3 13, 4 2:      19.45412544
Pair 3 13, 4 3:      19.43521307
Pair 3 13, 4 4:      19.40097076
Pair 3 13, 4 5:      18.68039261
Pair 3 13, 4 6:      18.58576969
Pair 3 13, 4 7:      -0.73032170
Pair 3 13, 4 8:      -0.69301719
Pair 3 13, 4 9:      -0.75238896
Pair 3 13, 4 10:      -0.83230580
Pair 3 13, 4 11:      -0.82558125
Pair 3 13, 4 12:      -0.85799784
Pair 3 13, 4 13:      -0.66683930
Pair 3 13, 4 14:       1.13899576
Pair 3 13, 4 15:       0.00910792
Pair 3 13, 4 16:      -1.40265975
Pair 3 13, 4 17:      -1.27552916
Pair 3 13, 4 18:      -1.33265826
Pair 3 14, 4 0:       7.22068917
Pair 3 14, 4 1:      19.39816847
Pair 3 14, 4 2:      19.44165303
Pair 3 14, 4 3:      19.43703634
Pair 3 14, 4 4:      19.36724381
Pair 3 14, 4 5:      18.56245828
Pair 3 14, 4 6:      18.46018452
Pair 3 14, 4 7:      -0.75410932
Pair 3 14, 4 8:      -0.72485582
Pair 3 14, 4 9:      -0.79334500
Pair 3 14, 4 10:      -0.85879219
Pair 3 14, 4 11:      -0.85228350
Pair 3 14, 4 12:      -0.87503309
Pair 3 14, 4 13:      -0.68104333
Pair 3 14, 4 14:       1.07550748
Pair 3 14, 4 15:      -0.03415103
Pair 3 14, 4 16:      -1.39767759
Pair 3 14, 4 17:      -1.26144890
Pair 3 14, 4 18:      -1.31622865
Pair 3 15, 4 0:       7.22332136
Pair 3 15, 4 1:      19.17642981
Pair 3 15, 4 2:      19.21569927
Pair 3 15, 4 3:      19.31474740
Pair 3 15, 4 4:      19.37572845
Pair 3 15, 4 5:      18.47706359
Pair 3 15, 4 6:      18.47833804
Pair 3 15, 4 7:      -0.71331111
Pair 3 15, 4 8:      -0.67200906
Pair 3 15, 4 9:      -0.72027557
Pair 3 15, 4 10:      -0.72433673
Pair 3 15, 4 11:      -0.78051672
Pair 3 15, 4 12:      -0.72507610
Pair 3 15, 4 13:      -0.65107132
Pair 3 15, 4 14:       1.05547154
Pair 3 15, 4 15:       0.05005163
Pair 3 15, 4 16:      -1.22754632
Pair 3 15, 4 17:      -1.16050933
Pair 3 15, 4 18:      -1.17874939
Pair 3 16, 4 0:       7.48323039
Pair 3 16, 4 1:      19.07339323
Pair 3 16, 4 2:      19.15845003
Pair 3 16, 4 3:      19.35060705
Pair 3 16, 4 4:      19.63693121
Pair 3 16, 4 5:      18.52477464
Pair 3 16, 4 6:      18.84386638
Pair 3 16, 4 7:      -0.66195004
Pair 3 16, 4 8:      -0.58161101
Pair 3 16, 4 9:      -0.57327666
Pair 3 16, 4 10:      -0.56031239
Pair 3 16, 4 11:      -0.71892461
Pair 3 16, 4 12:      -0.60881519
Pair 3 16, 4 13:      -0.76972866
Pair 3 16, 4 14:       1.13163848
Pair 3 16, 4 15:       0.32461090
Pair 3 16, 4 16:      -1.13224641
Pair 3 16, 4 17:      -1.27678993
Pair 3 16, 4 18:      -1.25373043
Pair 3 17, 4 0:       7.29255311
Pair 3 17, 4 1:      19.39977355
Pair 3 17, 4 2:      19.40691359
Pair 3 17, 4 3:      19.41200612
Pair 3 17, 4 4:      19.46759958
Pair 3 17, 4 5:      18.78110976
Pair 3 17, 4 6:      18.79958565
Pair 3 17, 4 7:      -0.72891081
Pair 3 17, 4 8:      -0.66082620
Pair 3 17, 4 9:      -0.67497269
Pair 3 17, 4 10:      -0.74929789
Pair 3 17, 4 11:      -0.81208937
Pair 3 17, 4 12:      -0.80834000
Pair 3 17, 4 13:      -0.79758046
Pair 3 17, 4 14:       1.21588866
Pair 3 17, 4 15:       0.23823827
Pair 3 17, 4 16:      -1.36868545
Pair 3 17, 4 17:      -1.38086311
Pair 3 17, 4 18:      -1.40218462
Pair 3 18, 4 0:       7.50118409
Pair 3 18, 4 1:      19.26175313
Pair 3 18, 4 2:      19.34334159
Pair 3 18, 4 3:      19.44243249
Pair 3 18, 4 4:      19.67480282
Pair 3 18, 4 5:      18.73335552
Pair 3 18, 4 6:      19.04582298
Pair 3 18, 4 7:      -0.69774609
Pair 3 18, 4 8:      -0.59920448
Pair 3 18, 4 9:      -0.56555127
Pair 3 18, 4 10:      -0.61027678
Pair 3 18, 4 11:      -0.77302904
Pair 3 18, 4 12:      -0.70724675
Pair 3 18, 4 13:      -0.92948572
Pair 3 18, 4 14:       1.24131639
Pair 3 18, 4 15:       0.48233981
Pair 3 18, 4 16:      -1.26683823
Pair 3 18, 4 17:      -1.48453797
Pair 3 18, 4 18:      -1.46186351
Triple 0 0, 1 0, 2 0:       0.06286569
Triple 0 0, 1 0, 2 3:       0.06233851
Triple 0 0, 1 0, 2 4:       0.06233851
Triple 0 0, 1 1, 2 0:       0.02578340
Triple 0 0, 1 1, 2 3:       0.02630160
Triple 0 0, 1 1, 2 4:       0.02630160
Triple 0 0, 1 2, 2 0:       0.04612449
Triple 0 0, 1 2, 2 3:       0.04375338
Triple 0 0, 1 2, 2 4:       0.04375338
Triple 0 0, 1 5, 2 0:       0.05231562
Triple 0 0, 1 5, 2 3:       0.05325466
Triple 0 0, 1 5, 2 4:       0.05325466
Triple 0 0, 1 6, 2 0:       0.06735141
Triple 0 0, 1 6, 2 3:       0.06626182
Triple 0 0, 1 6, 2 4:       0.06626182
Triple 0 5, 1 0, 2 0:       0.07104546
Triple 0 5, 1 0, 2 3:       0.07077796
Triple 0 5, 1 0, 2 4:       0.07077796
Triple 0 5, 1 1, 2 0:       0.04026523
Triple 0 5, 1 1, 2 3:       0.04132528
Triple 0 5, 1 1, 2 4:       0.04132528
Triple 0 5, 1 2, 2 0:       0.06242771
Triple 0 5, 1 2, 2 3:       0.06044100
Triple 0 5, 1 2, 2 4:       0.06044100
Triple 0 5, 1 5, 2 0:       0.06100830
Triple 0 5, 1 5, 2 3:       0.06206261
Triple 0 5, 1 5, 2 4:       0.06206261
Triple 0 5, 1 6, 2 0:       0.07597730
Triple 0 5, 1 6, 2 3:       0.07518718
Triple 0 5, 1 6, 2 4:       0.07518718
Triple 0 6, 1 0, 2 0:       0.06560412
Triple 0 6, 1 0, 2 3:       0.06570863
Triple 0 6, 1 0, 2 4:       0.06570863
Triple 0 6, 1 1, 2 0:       0.02433685
Triple 0 6, 1 1, 2 3:       0.02566602
Triple 0 6, 1 1, 2 4:       0.02566602
Triple 0 6, 1 2, 2 0:       0.04609203
Triple 0 6, 1 2, 2 3:       0.04436140
Triple 0 6, 1 2, 2 4:       0.04436140
Triple 0 6, 1 5, 2 0:       0.05527439
Triple 0 6, 1 5, 2 3:       0.05672688
Triple 0 6, 1 5, 2 4:       0.05672688
Triple 0 6, 1 6, 2 0:       0.07027680
Triple 0 6, 1 6, 2 3:       0.06988870
Triple 0 6, 1 6, 2 4:       0.06988870
Triple 0 7, 1 0, 2 0:       0.06660721
Triple 0 7, 1 0, 2 3:       0.06605943
Triple 0 7, 1 0, 2 4:       0.06605943
Triple 0 7, 1 1, 2 0:       0.03848630
Triple 0 7, 1 1, 2 3:       0.03862817
Triple 0 7, 1 1, 2 4:       0.03862817
Triple 0 7, 1 2, 2 0:       0.05937182
Triple 0 7, 1 2, 2 3:       0.05653079
Triple 0 7, 1 2, 2 4:       0.05653079
Triple 0 7, 1 5, 2 0:       0.05546708
Triple 0 7, 1 5, 2 3:       0.05630914
Triple 0 7, 1 5, 2 4:       0.05630914
Triple 0 7, 1 6, 2 0:       0.07082449
Triple 0 7, 1 6, 2 3:       0.06971428
Triple 0 7, 1 6, 2 4:       0.06971428
Triple 0 8, 1 0, 2 0:       0.05264196
Triple 0 8, 1 0, 2 3:       0.05205863
Triple 0 8, 1 0, 2 4:       0.05205863
Triple 0 8, 1 1, 2 0:       0.01439614
Triple 0 8, 1 1, 2 3:       0.01336141
Triple 0 8, 1 1, 2 4:       0.01336141
Triple 0 8, 1 2, 2 0:       0.03506365
Triple 0 8, 1 2, 2 3:       0.03103169
Triple 0 8, 1 2, 2 4:       0.03103169
Triple 0 8, 1 5, 2 0:       0.04068730
Triple 0 8, 1 5, 2 3:       0.04148691
Triple 0 8, 1 5, 2 4:       0.04148691
Triple 0 8, 1 6, 2 0:       0.05587001
Triple 0 8, 1 6, 2 3:       0.05472347
Triple 0 8, 1 6, 2 4:       0.05472347
