Self 0 0:     -12.19944602
Self 0 1:   60994.43287525
Self 0 2:   60500.07372141
Self 0 3:      28.04727330
Self 0 4:      30.26137080
Self 0 5:     -20.61482541
Self 0 6:     -20.12437148
Self 0 7:     -15.28764639
Self 0 8:     -14.20573055
Self 1 0:      -4.75317234
Self 1 1:      -0.80155035
Self 1 2:      -2.45115136
Self 1 3: 4196313.46152972
Self 1 4: 4186352.75694034
Self 1 5:      -2.38632472
Self 1 6:      -3.44394264
Self 1 7:      94.87698399
Self 1 8:      94.53105398
Self 2 0:       6.29794631
Self 2 1:    1169.70526190
Self 2 2:    1169.70526190
Self 2 3:      19.11454691
Self 2 4:      19.11454691
Self 2 5:     227.91414076
Pair 0 0, 1 0:      -0.15503713
Pair 0 0, 1 1:      -0.51103505
Pair 0 0, 1 2:      -0.40973127
Pair 0 0, 1 5:      -0.25469856
Pair 0 0, 1 6:      -0.13036582
Pair 0 0, 2 0:      -3.59579504
Pair 0 0, 2 3:      -3.32523995
Pair 0 0, 2 4:      -3.32523995
Pair 0 5, 1 0:      -0.14222047
Pair 0 5, 1 1:      -0.55328436
Pair 0 5, 1 2:      -0.42126214
Pair 0 5, 1 5:      -0.25512849
Pair 0 5, 1 6:      -0.11471032
Pair 0 5, 2 0:      -3.36231554
Pair 0 5, 2 3:      -3.14553431
Pair 0 5, 2 4:      -3.14553431
Pair 0 6, 1 0:      -0.14627083
Pair 0 6, 1 1:      -0.54600741
Pair 0 6, 1 2:      -0.48748420
Pair 0 6, 1 5:      -0.24055348
Pair 0 6, 1 6:      -0.12478359
Pair 0 6, 2 0:      -3.30706021
Pair 0 6, 2 3:      -3.14249423
Pair 0 6, 2 4:      -3.14249423
Pair 0 7, 1 0:      -0.15885350
Pair 0 7, 1 1:      -0.52047560
Pair 0 7, 1 2:      -0.38699230
Pair 0 7, 1 5:      -0.25428586
Pair 0 7, 1 6:      -0.13930002
Pair 0 7, 2 0:      -3.50738422
Pair 0 7, 2 3:      -3.25999110
Pair 0 7, 2 4:      -3.25999110
Pair 0 8, 1 0:      -0.20666138
Pair 0 8, 1 1:      -0.51441649
Pair 0 8, 1 2:      -0.45684685
Pair 0 8, 1 5:      -0.26688845
Pair 0 8, 1 6:      -0.19893900
Pair 0 8, 2 0:      -3.31993279
Pair 0 8, 2 3:      -3.11217827
Pair 0 8, 2 4:      -3.11217827
Pair 1 0, 2 0:      -3.28937206
Pair 1 0, 2 3:      -3.40067354
Pair 1 0, 2 4:      -3.40067354
Pair 1 1, 2 0:      -3.40556461
Pair 1 1, 2 3:      -3.57653655
Pair 1 1, 2 4:      -3.57653655
Pair 1 2, 2 0:      -4.39828088
Pair 1 2, 2 3:      -4.72133551
Pair 1 2, 2 4:      -4.72133551
Pair 1 5, 2 0:      -3.04667352
Pair 1 5, 2 3:      -3.15467878
Pair 1 5, 2 4:      -3.15467878
Pair 1 6, 2 0:      -3.32382258
Pair 1 6, 2 3:      -3.44029052
Pair 1 6, 2 4:      -3.44029052
