Self 0 0:      -4.45317085
Self 0 2:      -6.62140617
Self 0 1:     -14.18759861
Self 0 5:      -9.54229675
Self 0 7:      -5.28259576
Self 0 8:      -4.26196241
Self 1 1:       0.26890071
Self 1 0:      -1.97399605
Self 0 3:       9.15850876
Self 0 6:      -8.58490833
Self 0 4:      11.21487669
Self 1 2:      -0.67389920
Self 1 5:       0.32130239
Self 1 4:  156176.25106510
Self 1 3:  156198.34839616
Self 1 6:      -0.84315723
Self 1 7:       6.81536001
Self 1 8:       6.84279746
Self 2 1:      51.38159119
Self 2 0:     -25.95110128
Self 2 2:      51.38159119
Self 2 3:     -11.99172613
Self 3 0:       5.36093696
Self 2 4:     -11.99172613
Self 2 5:      -5.50667577
Self 3 1:       4.34873047
Self 3 3:       9.94484118
Self 3 2:       0.29283951
Self 3 4:       7.47680187
Self 3 5:       7.76272580
Self 4 0:      -1.79757006
Self 3 7:       2.22870187
Self 3 8:       4.67304455
Self 3 6:      -5.28707669
Self 4 1:       5.30152600
Self 4 3:      -0.37047917
Self 4 2:       2.16601331
Self 4 4:      -1.55331424
Self 4 6:       1.59838120
Self 4 5:       2.64064189
Self 4 9:      19.14288559
Self 4 7:      10.44127757
Self 4 10:      18.23327642
Self 4 8:      16.31414761
Self 4 11:      10.16886920
Self 4 13:       9.46642139
Self 4 15:       9.22746278
Self 4 12:      19.26844893
Self 4 14:       8.51502789
Self 4 17:       6.22241342
Self 4 16:       7.44884670
Self 4 18:       8.84459244
Self 5 4:       2.02501088
Self 5 0:       0.74395678
Self 5 1:       3.74174842
Self 5 3:       0.92922861
Self 5 6:       4.92191161
Self 5 2:      -1.96397903
Self 5 5:       5.45805726
Self 5 7:      13.57781169
Self 5 9:       5.43900289
Self 5 14:       3.92439464
Self 5 8:       6.22246209
Self 5 11:       0.31420555
Self 5 12:       2.43918836
Self 5 10:       3.99987061
Self 5 13:       6.95406039
Self 5 16:       6.97955526
Self 5 17:       6.35153437
Self 5 15:       6.93116153
Self 6 0:      -1.19173725
Self 6 2:      11.24127066
Self 6 1:      12.60552617
Self 5 18:       9.15106945
Self 6 3:      13.76366141
Self 7 0:      -9.39378430
Self 6 5:       9.62887854
Self 7 1:      -1.66079810
Self 6 7:       3.33287063
Self 6 4:       6.70264779
Self 6 6:       6.94207315
Self 7 2:      -0.09813064
Self 7 3:       4.89229366
Self 7 4:       5.42383823
Self 7 6:      -0.33471953
Self 7 8:      13.47613256
Self 7 5:       0.01553402
Self 7 7:      14.26998749
Pair 0 0, 1 0:       0.08072650
Pair 0 0, 1 7:       0.08097028
Pair 0 0, 1 2:      -0.08731494
Pair 0 0, 1 5:       0.06354358
Pair 0 0, 1 1:      -0.00775680
Pair 0 0, 1 6:       0.06433545
Pair 0 0, 1 8:       0.08932969
Pair 0 0, 2 0:      -2.65548978
Pair 0 0, 3 0:      -1.60177882
Pair 0 0, 3 1:      -1.85212053
Pair 0 0, 2 4:      -2.59153666
Pair 0 0, 3 2:      -2.30172116
Pair 0 0, 2 3:      -2.59153666
Pair 0 0, 3 3:      -1.56685800
Pair 0 0, 3 8:      -1.66291683
Pair 0 0, 3 6:      -2.08702745
Pair 0 0, 3 4:      -1.58344633
Pair 0 0, 3 7:      -1.68854283
Pair 0 0, 4 0:       0.13083315
Pair 0 0, 3 5:      -1.67113634
Pair 0 0, 4 2:       0.13705793
Pair 0 0, 4 1:       0.14656485
Pair 0 0, 4 6:       0.14142526
Pair 0 0, 4 3:       0.13082013
Pair 0 0, 4 4:       0.13199330
Pair 0 0, 4 5:       0.15113960
Pair 0 0, 4 7:       0.17149631
Pair 0 0, 4 8:       0.15086982
Pair 0 0, 4 13:       0.18049057
Pair 0 0, 4 11:       0.19311423
Pair 0 0, 4 14:       0.20431127
Pair 0 0, 4 15:       0.21144882
Pair 0 0, 4 16:       0.18675619
Pair 0 0, 4 18:       0.16123943
Pair 0 0, 4 17:       0.16015894
Pair 0 0, 5 3:       0.20141873
Pair 0 0, 5 2:       0.25356345
Pair 0 0, 5 0:       0.15180075
Pair 0 0, 5 5:       0.16984293
Pair 0 0, 5 1:       0.23149438
Pair 0 0, 5 8:       0.17458425
Pair 0 0, 5 4:       0.14527649
Pair 0 0, 5 6:       0.13518378
Pair 0 0, 5 10:       0.17594678
Pair 0 0, 5 9:       0.15123507
Pair 0 0, 5 12:       0.23241655
Pair 0 0, 5 7:       0.23797076
Pair 0 0, 5 11:       0.27174067
Pair 0 0, 5 14:       0.25207779
Pair 0 0, 5 16:       0.23010513
Pair 0 0, 5 17:       0.23764267
Pair 0 0, 5 13:       0.25421464
Pair 0 0, 6 0:       0.00437608
Pair 0 0, 6 3:      -0.18406713
Pair 0 0, 6 2:       0.16801363
Pair 0 0, 6 4:      -0.10237518
Pair 0 0, 6 6:       0.21226533
Pair 0 0, 6 1:       0.14635165
Pair 0 0, 5 18:       0.23034481
Pair 0 0, 5 15:       0.23808713
Pair 0 0, 6 5:       0.12231840
Pair 0 0, 6 7:       0.03024831
Pair 0 0, 7 1:      -1.96126467
Pair 0 0, 7 3:       0.30507008
Pair 0 0, 7 2:      -2.36238189
Pair 0 0, 7 0:      -2.42056884
Pair 0 0, 7 4:       0.18348395
Pair 0 0, 7 6:       0.27411901
Pair 0 0, 7 5:       0.30915181
Pair 0 1, 1 6:       0.03585960
Pair 0 1, 1 5:      -0.02560516
Pair 0 1, 1 1:      -0.09353036
Pair 0 1, 1 2:      -0.07057199
Pair 0 1, 1 0:       0.02312563
Pair 0 1, 2 0:      -3.55970377
Pair 0 1, 1 8:       0.06833246
Pair 0 1, 2 4:      -3.02105020
Pair 0 1, 3 1:      -1.67131265
Pair 0 1, 1 7:      -0.00023337
Pair 0 1, 2 3:      -3.02105020
Pair 0 1, 3 0:      -1.36687675
Pair 0 1, 3 2:      -2.13820550
Pair 0 1, 3 3:      -1.38373898
Pair 0 1, 3 4:      -1.42578321
Pair 0 1, 3 6:      -1.74125942
Pair 0 1, 3 5:      -1.56912990
Pair 0 1, 3 8:      -1.40549355
Pair 0 1, 3 7:      -1.44543887
Pair 0 1, 4 1:       0.11311703
Pair 0 1, 4 2:       0.12104061
Pair 0 1, 4 0:       0.12195712
Pair 0 1, 4 3:       0.13255054
Pair 0 1, 4 5:       0.11367810
Pair 0 1, 4 6:       0.11027073
Pair 0 1, 4 4:       0.12333947
Pair 0 1, 4 7:       0.11807238
Pair 0 1, 4 13:       0.15265465
Pair 0 1, 4 14:       0.17046728
Pair 0 1, 4 11:       0.14915655
Pair 0 1, 4 8:       0.10556841
Pair 0 1, 4 15:       0.18835593
Pair 0 1, 4 17:       0.14864781
Pair 0 1, 5 2:       0.25497102
Pair 0 1, 4 18:       0.16368979
Pair 0 1, 5 3:       0.25613907
Pair 0 1, 5 0:       0.18781104
Pair 0 1, 4 16:       0.18497762
Pair 0 1, 5 1:       0.19420420
Pair 0 1, 5 5:       0.14361903
Pair 0 1, 5 6:       0.13080831
Pair 0 1, 5 4:       0.17653825
Pair 0 1, 5 9:       0.08099007
Pair 0 1, 5 7:       0.17808615
Pair 0 1, 5 8:       0.09442287
Pair 0 1, 5 10:       0.13270727
Pair 0 1, 5 11:       0.27158165
Pair 0 1, 5 14:       0.25071030
Pair 0 1, 5 13:       0.25940289
Pair 0 1, 5 12:       0.22832627
Pair 0 1, 5 15:       0.25769630
Pair 0 1, 5 17:       0.27421578
Pair 0 1, 6 0:       0.52534884
Pair 0 1, 5 16:       0.27994255
Pair 0 1, 6 3:       0.51015428
Pair 0 1, 5 18:       0.29219426
Pair 0 1, 6 2:       0.35238846
Pair 0 1, 6 4:      -0.16757377
Pair 0 1, 6 1:       0.17827674
Pair 0 1, 6 5:       0.11073269
Pair 0 1, 6 6:       0.20405254
Pair 0 1, 7 0:   91368.01427804
Pair 0 1, 6 7:       0.17477390
Pair 0 1, 7 3:    1929.20949726
Pair 0 1, 7 1: 1680640.02641712
Pair 0 1, 7 4:    1928.68271846
Pair 0 1, 7 2: 1680627.24859491
Pair 0 2, 1 0:       0.13403502
Pair 0 1, 7 5:     156.65768084
Pair 0 2, 1 1:      -0.02406051
Pair 0 2, 1 2:       0.05052670
Pair 0 1, 7 6:     156.70140232
Pair 0 2, 1 6:       0.14400266
Pair 0 2, 1 7:       0.07198348
Pair 0 2, 1 5:       0.08708700
Pair 0 2, 2 0:      -7.75543954
Pair 0 2, 2 4:      -6.17649545
Pair 0 2, 1 8:       0.09089401
Pair 0 2, 2 3:      -6.17649545
Pair 0 2, 3 0:      -2.38950176
Pair 0 2, 3 3:      -2.39096781
Pair 0 2, 3 1:      -3.55648603
Pair 0 2, 3 2:      -4.76561489
Pair 0 2, 3 8:      -2.47210804
Pair 0 2, 3 5:      -2.82437310
Pair 0 2, 3 4:      -2.61265608
Pair 0 2, 3 7:      -2.72164146
Pair 0 2, 3 6:      -3.38686954
Pair 0 2, 4 0:       0.23542951
Pair 0 2, 4 2:      -0.01438039
Pair 0 2, 4 1:       0.04885715
Pair 0 2, 4 3:       0.07825062
Pair 0 2, 4 7:       0.23172443
Pair 0 2, 4 6:       0.31846805
Pair 0 2, 4 4:       0.24421029
Pair 0 2, 4 5:       0.21336171
Pair 0 2, 4 13:       0.20013979
Pair 0 2, 4 8:       0.23191193
Pair 0 2, 4 11:       0.27747554
Pair 0 2, 4 14:       0.30997869
Pair 0 2, 4 16:       0.31830740
Pair 0 2, 4 17:       0.16794976
Pair 0 2, 4 18:       0.19572195
Pair 0 2, 4 15:       0.41073640
Pair 0 2, 5 1:       0.22112648
Pair 0 2, 5 2:       0.31735826
Pair 0 2, 5 0:       0.08121727
Pair 0 2, 5 3:       0.22613456
Pair 0 2, 5 4:       0.07820357
Pair 0 2, 5 5:       0.08304698
Pair 0 2, 5 8:       0.21806681
Pair 0 2, 5 9:       0.22691958
Pair 0 2, 5 7:       0.24032859
Pair 0 2, 5 10:       0.31145959
Pair 0 2, 5 11:       0.32987641
Pair 0 2, 5 6:       0.02357506
Pair 0 2, 5 15:       0.38561642
Pair 0 2, 5 14:       0.36505182
Pair 0 2, 5 12:       0.40784284
Pair 0 2, 5 13:       0.32265834
Pair 0 2, 6 0:       0.31836043
Pair 0 2, 5 16:       0.34925833
Pair 0 2, 5 17:       0.29484705
Pair 0 2, 6 1:       0.06093458
Pair 0 2, 5 18:       0.30503991
Pair 0 2, 6 2:       0.10882134
Pair 0 2, 6 3:       0.32443284
Pair 0 2, 6 4:      -0.13220082
Pair 0 2, 6 6:       0.18751982
Pair 0 2, 6 5:       0.00572372
Pair 0 2, 7 0: 10000000000000000000000000000000000000000000000000000000000000000000000000000000000000000000000000000.00000000
Pair 0 2, 7 1: 10000000000000000000000000000000000000000000000000000000000000000000000000000000000000000000000000000.00000000
Pair 0 2, 6 7:       0.09702915
Pair 0 2, 7 5:     131.45560185
Pair 0 2, 7 4:     434.13748160
Pair 0 2, 7 3:     434.16110557
Pair 0 2, 7 6:     131.26914140
Pair 0 5, 1 2:      -0.11350203
Pair 0 5, 1 0:       0.08515950
Pair 0 2, 7 2: 1680587.14573683
Pair 0 5, 1 1:      -0.07524658
Pair 0 5, 1 5:       0.03968273
Pair 0 5, 1 8:       0.10641682
Pair 0 5, 1 7:       0.07920039
Pair 0 5, 1 6:       0.07141325
Pair 0 5, 2 0:      -2.64992967
Pair 0 5, 2 3:      -2.59565720
Pair 0 5, 2 4:      -2.59565720
Pair 0 5, 3 0:      -1.59007365
Pair 0 5, 3 4:      -1.59908827
Pair 0 5, 3 3:      -1.55770770
Pair 0 5, 3 1:      -1.88040194
Pair 0 5, 3 2:      -2.31138504
Pair 0 5, 3 6:      -2.08701021
Pair 0 5, 3 5:      -1.67787416
Pair 0 5, 3 8:      -1.64776380
Pair 0 5, 4 0:       0.13337326
Pair 0 5, 3 7:      -1.70162191
Pair 0 5, 4 3:       0.13119045
Pair 0 5, 4 4:       0.13455823
Pair 0 5, 4 2:       0.13459913
Pair 0 5, 4 1:       0.14387558
Pair 0 5, 4 5:       0.15057079
Pair 0 5, 4 7:       0.16834670
Pair 0 5, 4 6:       0.14340509
Pair 0 5, 4 8:       0.15042157
Pair 0 5, 4 13:       0.17557349
Pair 0 5, 4 14:       0.20075746
Pair 0 5, 4 11:       0.19036414
Pair 0 5, 4 15:       0.21046832
Pair 0 5, 4 17:       0.15648205
Pair 0 5, 4 16:       0.18666362
Pair 0 5, 4 18:       0.15969771
Pair 0 5, 5 1:       0.22773690
Pair 0 5, 5 0:       0.15607090
Pair 0 5, 5 4:       0.14969801
Pair 0 5, 5 2:       0.25106691
Pair 0 5, 5 3:       0.20440124
Pair 0 5, 5 5:       0.16825640
Pair 0 5, 5 6:       0.13680865
Pair 0 5, 5 7:       0.23405795
Pair 0 5, 5 10:       0.17839214
Pair 0 5, 5 8:       0.17193170
Pair 0 5, 5 9:       0.15139981
Pair 0 5, 5 11:       0.26947392
Pair 0 5, 5 13:       0.25173310
Pair 0 5, 5 15:       0.23976231
Pair 0 5, 5 12:       0.23380161
Pair 0 5, 5 16:       0.23393493
Pair 0 5, 5 14:       0.25058787
Pair 0 5, 5 17:       0.23755909
Pair 0 5, 6 0:       0.06960412
Pair 0 5, 5 18:       0.23347781
Pair 0 5, 6 2:       0.19320133
Pair 0 5, 6 1:       0.15803281
Pair 0 5, 6 3:      -0.18213407
Pair 0 5, 6 6:       0.21519540
Pair 0 5, 6 5:       0.10565732
Pair 0 5, 6 4:      -0.07068044
Pair 0 5, 7 0:      -2.00349269
Pair 0 5, 7 2:      -2.30827438
Pair 0 5, 6 7:       0.02049557
Pair 0 5, 7 1:      -1.72016983
Pair 0 5, 7 3:       0.35377485
Pair 0 5, 7 5:       0.31786584
Pair 0 6, 1 0:       0.07773053
Pair 0 5, 7 6:       0.29171496
Pair 0 6, 1 1:      -0.02399394
Pair 0 5, 7 4:       0.18630971
Pair 0 6, 1 5:       0.06489358
Pair 0 6, 1 2:      -0.16336132
Pair 0 6, 1 7:       0.07751019
Pair 0 6, 1 8:       0.07278567
Pair 0 6, 1 6:       0.05629705
Pair 0 6, 2 0:      -2.53155200
Pair 0 6, 2 3:      -2.51829129
Pair 0 6, 3 0:      -1.61029275
Pair 0 6, 3 1:      -1.78366259
Pair 0 6, 2 4:      -2.51829129
Pair 0 6, 3 2:      -2.24296640
Pair 0 6, 3 3:      -1.56585700
Pair 0 6, 3 4:      -1.55025976
Pair 0 6, 3 8:      -1.67788539
Pair 0 6, 4 0:       0.12184673
Pair 0 6, 3 5:      -1.63490187
Pair 0 6, 3 6:      -2.08952197
Pair 0 6, 4 1:       0.15652267
Pair 0 6, 3 7:      -1.66607761
Pair 0 6, 4 2:       0.14127148
Pair 0 6, 4 4:       0.12245445
Pair 0 6, 4 3:       0.12615140
Pair 0 6, 4 8:       0.15028571
Pair 0 6, 4 7:       0.17366028
Pair 0 6, 4 6:       0.13537795
Pair 0 6, 4 11:       0.19119657
Pair 0 6, 4 5:       0.15548056
Pair 0 6, 4 14:       0.20397104
Pair 0 6, 4 16:       0.17837933
Pair 0 6, 4 13:       0.18437346
Pair 0 6, 4 15:       0.20303876
Pair 0 6, 4 17:       0.16153587
Pair 0 6, 5 0:       0.14075550
Pair 0 6, 4 18:       0.15815565
Pair 0 6, 5 2:       0.22873061
Pair 0 6, 5 4:       0.13574951
Pair 0 6, 5 3:       0.17790340
Pair 0 6, 5 5:       0.17199037
Pair 0 6, 5 7:       0.22426603
Pair 0 6, 5 8:       0.17128117
Pair 0 6, 5 6:       0.13482596
Pair 0 6, 5 9:       0.14827615
Pair 0 6, 5 1:       0.22389802
Pair 0 6, 5 10:       0.16580229
Pair 0 6, 5 11:       0.24504629
Pair 0 6, 5 13:       0.23566669
Pair 0 6, 5 12:       0.20994846
Pair 0 6, 5 14:       0.23451040
Pair 0 6, 5 15:       0.21560872
Pair 0 6, 5 16:       0.20355804
Pair 0 6, 5 18:       0.20335237
Pair 0 6, 5 17:       0.21455460
Pair 0 6, 6 0:      -0.01307227
Pair 0 6, 6 1:       0.12672337
Pair 0 6, 6 2:       0.13829872
Pair 0 6, 6 3:      -0.22673214
Pair 0 6, 6 4:      -0.08151481
Pair 0 6, 6 6:       0.19759468
Pair 0 6, 6 7:      -0.00634577
Pair 0 6, 6 5:       0.10605023
Pair 0 6, 7 0:      -2.00690743
Pair 0 6, 7 1:      -1.77840049
Pair 0 6, 7 2:      -2.53358330
Pair 0 6, 7 3:       0.22868628
Pair 0 6, 7 5:       0.23794064
Pair 0 6, 7 6:       0.19633482
Pair 0 6, 7 4:       0.15510468
Pair 0 7, 1 1:      -0.06337791
Pair 0 7, 1 0:       0.05992274
Pair 0 7, 1 2:      -0.03984278
Pair 0 7, 1 5:       0.03322511
Pair 0 7, 1 6:       0.03894099
Pair 0 7, 2 0:      -2.80223289
Pair 0 7, 1 7:       0.04773150
Pair 0 7, 2 3:      -2.73143420
Pair 0 7, 1 8:       0.05524988
Pair 0 7, 2 4:      -2.73143420
Pair 0 7, 3 0:      -1.69731730
Pair 0 7, 3 1:      -2.00395389
Pair 0 7, 3 2:      -2.47364444
Pair 0 7, 3 3:      -1.63633030
Pair 0 7, 3 6:      -2.28107623
Pair 0 7, 3 4:      -1.69227284
Pair 0 7, 3 5:      -1.72923218
Pair 0 7, 4 0:       0.12809279
Pair 0 7, 3 7:      -1.84231969
Pair 0 7, 3 8:      -1.76248428
Pair 0 7, 4 2:       0.12580579
Pair 0 7, 4 3:       0.11846006
Pair 0 7, 4 1:       0.14772177
Pair 0 7, 4 4:       0.12899529
Pair 0 7, 4 6:       0.15031160
Pair 0 7, 4 5:       0.16229111
Pair 0 7, 4 7:       0.17374277
Pair 0 7, 4 13:       0.17467995
Pair 0 7, 4 8:       0.15712787
Pair 0 7, 4 11:       0.19024441
Pair 0 7, 4 14:       0.20270925
Pair 0 7, 4 15:       0.20831355
Pair 0 7, 4 16:       0.17762179
Pair 0 7, 4 18:       0.14968981
Pair 0 7, 5 1:       0.21094407
Pair 0 7, 4 17:       0.15053566
Pair 0 7, 5 0:       0.13398895
Pair 0 7, 5 2:       0.21509160
Pair 0 7, 5 3:       0.16860342
Pair 0 7, 5 4:       0.13009088
Pair 0 7, 5 5:       0.16197616
Pair 0 7, 5 6:       0.12781522
Pair 0 7, 5 8:       0.16794519
Pair 0 7, 5 7:       0.21401710
Pair 0 7, 5 9:       0.15089374
Pair 0 7, 5 10:       0.17262400
Pair 0 7, 5 12:       0.21308561
Pair 0 7, 5 13:       0.22540091
Pair 0 7, 5 11:       0.23540295
Pair 0 7, 5 16:       0.20228499
Pair 0 7, 5 15:       0.21633710
Pair 0 7, 5 14:       0.22996724
Pair 0 7, 5 17:       0.20392809
Pair 0 7, 5 18:       0.19628243
Pair 0 7, 6 0:      -0.22709314
Pair 0 7, 6 1:       0.11297236
Pair 0 7, 6 2:       0.12351025
Pair 0 7, 6 3:      -0.52464275
Pair 0 7, 6 6:       0.17378221
Pair 0 7, 6 4:      -0.06365758
Pair 0 7, 6 5:       0.08550106
Pair 0 7, 6 7:      -0.04702993
Pair 0 7, 7 0:      -3.00542474
Pair 0 7, 7 2:      -2.15655335
Pair 0 7, 7 1:      -2.49664426
Pair 0 7, 7 4:       0.07617724
Pair 0 7, 7 3:       0.21462890
Pair 0 7, 7 5:       0.18447235
Pair 0 8, 1 0:       0.03212880
Pair 0 7, 7 6:       0.14323128
Pair 0 8, 1 1:      -0.01557187
Pair 0 8, 1 2:      -0.07788741
Pair 0 8, 1 5:       0.04781115
Pair 0 8, 1 6:       0.00668567
Pair 0 8, 2 0:      -2.52951301
Pair 0 8, 1 8:       0.02792085
Pair 0 8, 3 0:      -1.52223904
Pair 0 8, 1 7:       0.02545802
Pair 0 8, 2 4:      -2.47697097
Pair 0 8, 2 3:      -2.47697097
Pair 0 8, 3 1:      -1.75191752
Pair 0 8, 3 2:      -2.19704040
Pair 0 8, 3 6:      -1.99519422
Pair 0 8, 3 3:      -1.49093988
Pair 0 8, 3 4:      -1.50012742
Pair 0 8, 3 5:      -1.58450595
Pair 0 8, 3 7:      -1.60103469
Pair 0 8, 4 0:       0.11789539
Pair 0 8, 4 1:       0.14793975
Pair 0 8, 3 8:      -1.58061367
Pair 0 8, 4 2:       0.13477903
Pair 0 8, 4 3:       0.12089234
Pair 0 8, 4 5:       0.14892189
Pair 0 8, 4 4:       0.11864606
Pair 0 8, 4 7:       0.16644080
Pair 0 8, 4 6:       0.13235336
Pair 0 8, 4 11:       0.18461441
Pair 0 8, 4 8:       0.14431519
Pair 0 8, 4 13:       0.17559151
Pair 0 8, 4 14:       0.19641491
Pair 0 8, 4 15:       0.19866339
Pair 0 8, 4 16:       0.17432633
Pair 0 8, 4 18:       0.15329429
Pair 0 8, 4 17:       0.15496684
Pair 0 8, 5 1:       0.21997832
Pair 0 8, 5 2:       0.22079764
Pair 0 8, 5 0:       0.13753197
Pair 0 8, 5 3:       0.17032092
Pair 0 8, 5 4:       0.13293878
Pair 0 8, 5 5:       0.16911402
Pair 0 8, 5 7:       0.21932691
Pair 0 8, 5 6:       0.13296833
Pair 0 8, 5 8:       0.17145730
Pair 0 8, 5 9:       0.14791947
Pair 0 8, 5 10:       0.16185950
Pair 0 8, 5 11:       0.23217995
Pair 0 8, 5 12:       0.19947255
Pair 0 8, 5 14:       0.22443401
Pair 0 8, 5 13:       0.22726797
Pair 0 8, 5 15:       0.20625638
Pair 0 8, 5 16:       0.19509376
Pair 0 8, 5 17:       0.20774495
Pair 0 8, 5 18:       0.19565758
Pair 0 8, 6 0:      -0.26851943
Pair 0 8, 6 2:       0.11345658
Pair 0 8, 6 3:      -0.51521118
Pair 0 8, 6 1:       0.10184283
Pair 0 8, 6 6:       0.14654098
Pair 0 8, 6 4:      -0.00357450
Pair 0 8, 6 5:       0.12205726
Pair 0 8, 7 0:      -2.84393185
Pair 0 8, 7 2:      -2.34617391
Pair 0 8, 7 5:       0.16948477
Pair 0 8, 6 7:      -0.08076217
Pair 0 8, 7 1:      -2.36492262
Pair 0 8, 7 4:       0.09727851
Pair 0 8, 7 3:       0.16898754
Pair 1 0, 2 3:      -4.04074344
Pair 0 8, 7 6:       0.12756420
Pair 1 0, 2 0:      -3.99773874
Pair 1 0, 3 0:      -2.42347719
Pair 1 0, 2 4:      -4.04074344
Pair 1 0, 3 1:      -2.68716788
Pair 1 0, 3 3:      -2.53118916
Pair 1 0, 3 2:      -3.37759745
Pair 1 0, 3 4:      -2.41311941
Pair 1 0, 3 5:      -2.89790681
Pair 1 0, 3 8:      -2.50638131
Pair 1 0, 3 7:      -2.39821749
Pair 1 0, 4 0:       0.20266081
Pair 1 0, 3 6:      -2.97542705
Pair 1 0, 4 1:       0.43657594
Pair 1 0, 4 2:       0.55641568
Pair 1 0, 4 3:       0.38720177
Pair 1 0, 4 6:       0.16491013
Pair 1 0, 4 5:       0.24736389
Pair 1 0, 4 4:       0.20292285
Pair 1 0, 4 7:       0.38258974
Pair 1 0, 4 11:       0.47796268
Pair 1 0, 4 8:       0.22654545
Pair 1 0, 4 13:       0.50709944
Pair 1 0, 4 14:       0.50335103
Pair 1 0, 4 15:       0.47906147
Pair 1 0, 5 1:       0.69547011
Pair 1 0, 4 18:       0.46563190
Pair 1 0, 4 16:       0.46527029
Pair 1 0, 4 17:       0.47663144
Pair 1 0, 5 2:       0.55677514
Pair 1 0, 5 0:       0.39323052
Pair 1 0, 5 4:       0.38404363
Pair 1 0, 5 3:       0.39877424
Pair 1 0, 5 5:       0.61076171
Pair 1 0, 5 7:       0.63396194
Pair 1 0, 5 6:       0.45250609
Pair 1 0, 5 8:       0.62204292
Pair 1 0, 5 9:       0.41063511
Pair 1 0, 5 11:       0.44813342
Pair 1 0, 5 10:       0.31344810
Pair 1 0, 5 12:       0.32243987
Pair 1 0, 5 14:       0.47994159
Pair 1 0, 5 13:       0.63839949
Pair 1 0, 5 15:       0.30784566
Pair 1 0, 5 16:       0.26577682
Pair 1 0, 5 18:       0.33547250
Pair 1 0, 6 0:      -2.58647973
Pair 1 0, 5 17:       0.53783118
Pair 1 0, 6 1:      -0.36612525
Pair 1 0, 6 3:      -3.02167945
Pair 1 0, 6 2:      -0.93560510
Pair 1 0, 6 4:      -1.12893819
Pair 1 0, 6 5:    1192.55767931
Pair 1 0, 7 0:       0.25778752
Pair 1 0, 6 6:   20337.16679416
Pair 1 0, 7 1:       0.26531964
Pair 1 0, 6 7:    4563.37359142
Pair 1 0, 7 2:      -0.03137088
Pair 1 0, 7 3:       0.20730121
Pair 1 0, 7 4:       0.21739118
Pair 1 0, 7 5:       0.18128007
Pair 1 0, 7 6:       0.01844834
Pair 1 1, 2 0:      -3.72221222
Pair 1 1, 2 4:      -3.80791676
Pair 1 1, 2 3:      -3.80791676
Pair 1 1, 3 2:      -3.20739272
Pair 1 1, 3 0:      -2.26149850
Pair 1 1, 3 3:      -2.31472347
Pair 1 1, 3 1:      -2.43475721
Pair 1 1, 3 4:      -2.16706579
Pair 1 1, 3 5:      -2.51538017
Pair 1 1, 3 6:      -2.90507355
Pair 1 1, 3 7:      -2.22506622
Pair 1 1, 3 8:      -2.37045768
Pair 1 1, 4 0:       0.16280896
Pair 1 1, 4 1:       0.37880278
Pair 1 1, 4 3:       0.24756604
Pair 1 1, 4 2:       0.37493764
Pair 1 1, 4 4:       0.16066474
Pair 1 1, 4 5:       0.26361027
Pair 1 1, 4 7:       0.33389908
Pair 1 1, 4 8:       0.22220625
Pair 1 1, 4 6:       0.16946633
Pair 1 1, 4 11:       0.37184249
Pair 1 1, 4 14:       0.40763553
Pair 1 1, 4 13:       0.40466542
Pair 1 1, 4 17:       0.35608045
Pair 1 1, 4 15:       0.36992376
Pair 1 1, 4 16:       0.33922428
Pair 1 1, 5 0:       0.22502287
Pair 1 1, 4 18:       0.33229660
Pair 1 1, 5 4:       0.22038134
Pair 1 1, 5 3:       0.24172287
Pair 1 1, 5 2:       0.34685045
Pair 1 1, 5 5:       0.38931177
Pair 1 1, 5 1:       0.44214902
Pair 1 1, 5 6:       0.27114921
Pair 1 1, 5 8:       0.33973344
Pair 1 1, 5 9:       0.27101274
Pair 1 1, 5 7:       0.41438052
Pair 1 1, 5 11:       0.37497841
Pair 1 1, 5 10:       0.26491528
Pair 1 1, 5 12:       0.29974719
Pair 1 1, 5 13:       0.42792845
Pair 1 1, 5 15:       0.29920861
Pair 1 1, 5 14:       0.41193117
Pair 1 1, 5 16:       0.24351975
Pair 1 1, 5 17:       0.31781601
Pair 1 1, 5 18:       0.24802136
Pair 1 1, 6 0:      -0.24684854
Pair 1 1, 6 2:       0.04802780
Pair 1 1, 6 1:       0.10409036
Pair 1 1, 6 4:       0.09460098
Pair 1 1, 6 3:      -0.31740888
Pair 1 1, 6 5:      -0.37670182
Pair 1 1, 6 6:      -0.27734707
Pair 1 1, 6 7:      -1.34594323
Pair 1 1, 7 0:       0.13533164
Pair 1 1, 7 1:       0.09950632
Pair 1 1, 7 2:      -0.02109097
Pair 1 1, 7 3:       0.19798715
Pair 1 1, 7 4:       0.19150410
Pair 1 1, 7 5:       0.20215297
Pair 1 1, 7 6:       0.08077137
Pair 1 2, 2 0:      -4.52355998
Pair 1 2, 2 3:      -4.71533582
Pair 1 2, 2 4:      -4.71533582
Pair 1 2, 3 0:      -3.20906176
Pair 1 2, 3 1:      -3.13116235
Pair 1 2, 3 4:      -2.85313746
Pair 1 2, 3 3:      -3.18906711
Pair 1 2, 3 2:      -4.18782143
Pair 1 2, 3 6:      -4.05263058
Pair 1 2, 3 5:      -3.21983175
Pair 1 2, 3 7:      -3.03190286
Pair 1 2, 4 0:       0.20641404
Pair 1 2, 4 2:       0.43795795
Pair 1 2, 3 8:      -3.41423278
Pair 1 2, 4 4:       0.20229680
Pair 1 2, 4 3:       0.28560658
Pair 1 2, 4 1:       0.48756858
Pair 1 2, 4 5:       0.37054509
Pair 1 2, 4 6:       0.23617391
Pair 1 2, 4 7:       0.43704793
Pair 1 2, 4 11:       0.45912887
Pair 1 2, 4 8:       0.30847856
Pair 1 2, 4 14:       0.50685100
Pair 1 2, 4 15:       0.43544383
Pair 1 2, 4 13:       0.50646911
Pair 1 2, 4 16:       0.38561280
Pair 1 2, 4 17:       0.42702092
Pair 1 2, 4 18:       0.38117094
Pair 1 2, 5 0:       0.22901980
Pair 1 2, 5 1:       0.46625099
Pair 1 2, 5 2:       0.33747639
Pair 1 2, 5 4:       0.22910742
Pair 1 2, 5 3:       0.23273247
Pair 1 2, 5 5:       0.43862235
Pair 1 2, 5 6:       0.30384336
Pair 1 2, 5 7:       0.43475833
Pair 1 2, 5 8:       0.37574275
Pair 1 2, 5 9:       0.31184053
Pair 1 2, 5 10:       0.30580352
Pair 1 2, 5 11:       0.38916189
Pair 1 2, 5 13:       0.44767874
Pair 1 2, 5 12:       0.33251105
Pair 1 2, 5 14:       0.45250956
Pair 1 2, 5 16:       0.24096830
Pair 1 2, 5 15:       0.32242343
Pair 1 2, 5 17:       0.31035305
Pair 1 2, 5 18:       0.23289259
Pair 1 2, 6 0:      -0.17838137
Pair 1 2, 6 1:       0.10598133
Pair 1 2, 6 3:      -0.26291383
Pair 1 2, 6 4:       0.07194014
Pair 1 2, 6 2:       0.03213870
Pair 1 2, 6 6:      -0.25392876
Pair 1 2, 6 5:      -0.47061135
Pair 1 2, 7 1:       0.13928689
Pair 1 2, 6 7:      -1.27281710
Pair 1 2, 7 0:       0.17043158
Pair 1 2, 7 4:       0.16004961
Pair 1 2, 7 3:       0.15573067
Pair 1 2, 7 2:      -0.05372694
Pair 1 2, 7 5:       0.17564429
Pair 1 2, 7 6:       0.01859312
Pair 1 5, 2 3:      -3.77347871
Pair 1 5, 2 4:      -3.77347871
Pair 1 5, 3 0:      -2.25676684
Pair 1 5, 2 0:      -3.70947726
Pair 1 5, 3 1:      -2.45179865
Pair 1 5, 3 3:      -2.32116732
Pair 1 5, 3 2:      -3.14189569
Pair 1 5, 3 5:      -2.58416281
Pair 1 5, 3 4:      -2.19426052
Pair 1 5, 3 6:      -2.81699619
Pair 1 5, 3 7:      -2.22685032
Pair 1 5, 4 0:       0.15530535
Pair 1 5, 3 8:      -2.34649013
Pair 1 5, 4 1:       0.38797200
Pair 1 5, 4 3:       0.29872874
Pair 1 5, 4 2:       0.45865727
Pair 1 5, 4 6:       0.14294565
Pair 1 5, 4 5:       0.23023312
Pair 1 5, 4 4:       0.15494309
Pair 1 5, 4 7:       0.34177738
Pair 1 5, 4 11:       0.41019534
Pair 1 5, 4 13:       0.44087952
Pair 1 5, 4 8:       0.20891133
Pair 1 5, 4 16:       0.38591224
Pair 1 5, 4 15:       0.41109827
Pair 1 5, 4 14:       0.44120960
Pair 1 5, 5 0:       0.24929647
Pair 1 5, 5 1:       0.54875151
Pair 1 5, 4 17:       0.40050964
Pair 1 5, 5 2:       0.41070925
Pair 1 5, 4 18:       0.38111674
Pair 1 5, 5 3:       0.25380278
Pair 1 5, 5 4:       0.24127970
Pair 1 5, 5 5:       0.46574892
Pair 1 5, 5 7:       0.48123343
Pair 1 5, 5 6:       0.30948488
Pair 1 5, 5 8:       0.43247204
Pair 1 5, 5 11:       0.38898279
Pair 1 5, 5 9:       0.31322048
Pair 1 5, 5 12:       0.30867787
Pair 1 5, 5 10:       0.28553807
Pair 1 5, 5 16:       0.21195479
Pair 1 5, 5 13:       0.50979605
Pair 1 5, 5 18:       0.22036466
Pair 1 5, 5 15:       0.27745015
Pair 1 5, 5 14:       0.43434790
Pair 1 5, 5 17:       0.35819460
Pair 1 5, 6 0:       1.80322219
Pair 1 5, 6 2:      -0.89594719
Pair 1 5, 6 1:      -0.58485116
Pair 1 5, 6 4:      -1.40351328
Pair 1 5, 6 3:      -2.30140182
Pair 1 5, 6 5:    6229.19196089
Pair 1 5, 6 6:   24007.15839089
Pair 1 5, 7 0:       0.18538059
Pair 1 5, 6 7:   25651.82262076
Pair 1 5, 7 1:       0.19116628
Pair 1 5, 7 3:       0.15928315
Pair 1 5, 7 2:      -0.10134200
Pair 1 5, 7 4:       0.15459550
Pair 1 6, 2 0:      -4.03291295
Pair 1 5, 7 5:       0.15007924
Pair 1 5, 7 6:      -0.00647694
Pair 1 6, 2 3:      -4.07236577
Pair 1 6, 2 4:      -4.07236577
Pair 1 6, 3 0:      -2.41324453
Pair 1 6, 3 2:      -3.38656625
Pair 1 6, 3 1:      -2.69804195
Pair 1 6, 3 4:      -2.41747397
Pair 1 6, 3 3:      -2.52708916
Pair 1 6, 3 5:      -2.91522703
Pair 1 6, 4 0:       0.20400236
Pair 1 6, 3 7:      -2.39455753
Pair 1 6, 3 8:      -2.49353286
Pair 1 6, 3 6:      -2.96400886
Pair 1 6, 4 1:       0.43829584
Pair 1 6, 4 2:       0.56885852
Pair 1 6, 4 3:       0.39708732
Pair 1 6, 4 4:       0.20458654
Pair 1 6, 4 6:       0.16085226
Pair 1 6, 4 5:       0.24195446
Pair 1 6, 4 11:       0.48558322
Pair 1 6, 4 7:       0.38433027
Pair 1 6, 4 13:       0.51391718
Pair 1 6, 4 15:       0.48872561
Pair 1 6, 4 8:       0.22612175
Pair 1 6, 4 14:       0.51059056
Pair 1 6, 4 16:       0.47631157
Pair 1 6, 5 1:       0.73272126
Pair 1 6, 5 0:       0.41607273
Pair 1 6, 5 3:       0.42673861
Pair 1 6, 4 18:       0.47557545
Pair 1 6, 5 2:       0.59872610
Pair 1 6, 5 5:       0.63155331
Pair 1 6, 4 17:       0.48453881
Pair 1 6, 5 6:       0.46904768
Pair 1 6, 5 4:       0.40369212
Pair 1 6, 5 8:       0.63346936
Pair 1 6, 5 10:       0.31150407
Pair 1 6, 5 7:       0.68173514
Pair 1 6, 5 9:       0.40818330
Pair 1 6, 5 11:       0.48539682
Pair 1 6, 5 12:       0.32698842
Pair 1 6, 5 15:       0.33605957
Pair 1 6, 5 13:       0.66620180
Pair 1 6, 5 14:       0.50931256
Pair 1 6, 5 16:       0.29837938
Pair 1 6, 5 17:       0.56471706
Pair 1 6, 5 18:       0.37079861
Pair 1 6, 6 1:      -0.55462336
Pair 1 6, 6 3:      -2.11719920
Pair 1 6, 6 2:      -1.11548166
Pair 1 6, 6 0:       1.99694966
Pair 1 6, 6 4:      -1.53199890
Pair 1 6, 6 5:    6261.97649361
Pair 1 6, 6 6:   24494.85583272
Pair 1 6, 6 7:   24186.81786810
Pair 1 6, 7 3:       0.21379686
Pair 1 6, 7 1:       0.29256260
Pair 1 6, 7 0:       0.28180136
Pair 1 6, 7 4:       0.22787713
Pair 1 6, 7 5:       0.18143900
Pair 1 6, 7 2:      -0.00136140
Pair 1 7, 2 0:      -3.60886269
Pair 1 6, 7 6:       0.01790305
Pair 1 7, 2 3:      -3.68909958
Pair 1 7, 3 3:      -2.21384818
Pair 1 7, 3 1:      -2.35028141
Pair 1 7, 3 4:      -2.09084672
Pair 1 7, 2 4:      -3.68909958
Pair 1 7, 3 2:      -3.04572539
Pair 1 7, 3 0:      -2.18064970
Pair 1 7, 3 8:      -2.27309747
Pair 1 7, 3 5:      -2.39194386
Pair 1 7, 3 6:      -2.74683588
Pair 1 7, 4 1:       0.30601702
Pair 1 7, 3 7:      -2.15277490
Pair 1 7, 4 0:       0.15205920
Pair 1 7, 4 2:       0.31244966
Pair 1 7, 4 4:       0.15206544
Pair 1 7, 4 3:       0.22618210
Pair 1 7, 4 6:       0.15076199
Pair 1 7, 4 7:       0.28553854
Pair 1 7, 4 5:       0.22096464
Pair 1 7, 4 11:       0.32639951
Pair 1 7, 4 8:       0.20130761
Pair 1 7, 4 15:       0.34171049
Pair 1 7, 4 17:       0.31448748
Pair 1 7, 4 13:       0.35286778
Pair 1 7, 4 14:       0.36266374
Pair 1 7, 4 16:       0.31248665
Pair 1 7, 5 0:       0.17776889
Pair 1 7, 4 18:       0.29876003
Pair 1 7, 5 2:       0.39327020
Pair 1 7, 5 1:       0.43147536
Pair 1 7, 5 4:       0.15919979
Pair 1 7, 5 3:       0.22694261
Pair 1 7, 5 6:       0.18603319
Pair 1 7, 5 9:       0.14508156
Pair 1 7, 5 5:       0.28667612
Pair 1 7, 5 8:       0.20418419
Pair 1 7, 5 10:       0.17052276
Pair 1 7, 5 7:       0.42179536
Pair 1 7, 5 12:       0.25600506
Pair 1 7, 5 15:       0.31071193
Pair 1 7, 5 13:       0.38815260
Pair 1 7, 5 14:       0.38742139
Pair 1 7, 5 11:       0.43832359
Pair 1 7, 5 16:       0.27553715
Pair 1 7, 5 18:       0.27887323
Pair 1 7, 5 17:       0.30773997
Pair 1 7, 6 0:      81.79481181
Pair 1 7, 6 4:       5.06189076
Pair 1 7, 6 2:       6.17048165
Pair 1 7, 6 3:      47.70698179
Pair 1 7, 6 1:       6.38262227
Pair 1 7, 6 7: 10000000000000000000000000000000000000000000000000000000000000000000000000000000000000000000000000000.00000000
Pair 1 7, 6 6:    5376.36016106