Self 0 0:     -12.19944602
Self 0 1:   60994.43287525
Self 0 2:   60500.07372141
Self 0 3:      28.04727330
Self 0 4:      30.26137080
Self 0 5:     -20.61482541
Self 0 6:     -20.12437148
Self 0 7:     -15.28764639
Self 0 8:     -14.20573055
Self 1 0:      -4.75317234
Self 1 1:      -0.80155035
Self 1 2:      -2.45115136
Self 1 3: 4196313.46152972
Self 1 4: 4186352.75694034
Self 1 5:      -2.38632472
Self 1 6:      -3.44394264
Self 1 7:      94.87698399
Self 1 8:      94.53105398
Self 2 0:       6.29794631
Self 2 1:    1169.70526190
Self 2 2:    1169.70526190
Self 2 3:      19.11454691
Self 2 4:      19.11454691
Self 2 5:     227.91414076
Pair 0 0, 1 0:      -0.15503713
Pair 0 0, 1 1:      -0.51103505
Pair 0 0, 1 2:      -0.40973127
Pair 0 0, 1 3:      -0.29941418
Pair 0 0, 1 4:      -0.31100471
Pair 0 0, 1 5:      -0.25469856
Pair 0 0, 1 6:      -0.13036582
Pair 0 0, 1 7:      -0.12324267
Pair 0 0, 1 8:      -0.12084738
Pair 0 0, 2 0:      -3.59579504
Pair 0 0, 2 1:      -2.23577521
Pair 0 0, 2 2:      -2.23577521
Pair 0 0, 2 3:      -3.32523995
Pair 0 0, 2 4:      -3.32523995
Pair 0 0, 2 5:      -6.01567881
Pair 0 1, 1 0:      -0.16528632
Pair 0 1, 1 1:      -0.32805968
Pair 0 1, 1 2:      -0.20812622
Pair 0 1, 1 3:      -0.31869626
Pair 0 1, 1 4:      -0.23083042
Pair 0 1, 1 5:      -0.31037093
Pair 0 1, 1 6:      -0.15065370
Pair 0 1, 1 7:      -0.09314585
Pair 0 1, 1 8:       0.05674816
Pair 0 1, 2 0:      -7.05290959
Pair 0 1, 2 1:      -5.75381439
Pair 0 1, 2 2:      -5.75381439
Pair 0 1, 2 3:      -5.58279829
Pair 0 1, 2 4:      -5.58279829
Pair 0 1, 2 5:     107.96423189
Pair 0 2, 1 0:      -0.14524705
Pair 0 2, 1 1:      -0.31447134
Pair 0 2, 1 2:      -0.18852231
Pair 0 2, 1 3:      -0.47699814
Pair 0 2, 1 4:      -0.39446978
Pair 0 2, 1 5:      -0.29283837
Pair 0 2, 1 6:      -0.12970809
Pair 0 2, 1 7:      -0.08311407
Pair 0 2, 1 8:       0.06064333
Pair 0 2, 2 0:      -6.65495075
Pair 0 2, 2 1:      -4.52228340
Pair 0 2, 2 2:      -4.52228340
Pair 0 2, 2 3:      -4.72631418
Pair 0 2, 2 4:      -4.72631418
Pair 0 2, 2 5:     112.54857283
Pair 0 3, 1 0:      -0.11141029
Pair 0 3, 1 1:      -1.75393253
Pair 0 3, 1 2:      -1.42491467
Pair 0 3, 1 3:      -0.22543700
Pair 0 3, 1 4:      -0.32639241
Pair 0 3, 1 5:      -0.19755394
Pair 0 3, 1 6:      -0.08658612
Pair 0 3, 1 7:      -0.07847401
Pair 0 3, 1 8:      -0.03082649
Pair 0 3, 2 0:      -6.47098095
Pair 0 3, 2 1:      -5.07301829
Pair 0 3, 2 2:      -5.07301829
Pair 0 3, 2 3:      -7.07635837
Pair 0 3, 2 4:      -7.07635837
Pair 0 3, 2 5:      -9.90925998
Pair 0 4, 1 0:      -0.24360899
Pair 0 4, 1 1:      -2.25905409
Pair 0 4, 1 2:      -2.44925880
Pair 0 4, 1 3:      -0.22653924
Pair 0 4, 1 4:      -0.32152642
Pair 0 4, 1 5:      -0.28468082
Pair 0 4, 1 6:      -0.23713765
Pair 0 4, 1 7:      -0.20095116
Pair 0 4, 1 8:      -0.19994709
Pair 0 4, 2 0:      -3.84968713
Pair 0 4, 2 1:      -3.30707310
Pair 0 4, 2 2:      -3.30707310
Pair 0 4, 2 3:      -3.78238982
Pair 0 4, 2 4:      -3.78238982
Pair 0 4, 2 5:      -8.47407279
Pair 0 5, 1 0:      -0.14222047
Pair 0 5, 1 1:      -0.55328436
Pair 0 5, 1 2:      -0.42126214
Pair 0 5, 1 3:      -0.29680623
Pair 0 5, 1 4:      -0.31564196
Pair 0 5, 1 5:      -0.25512849
Pair 0 5, 1 6:      -0.11471032
Pair 0 5, 1 7:      -0.11001199
Pair 0 5, 1 8:      -0.08941269
Pair 0 5, 2 0:      -3.36231554
Pair 0 5, 2 1:      -2.14215144
Pair 0 5, 2 2:      -2.14215144
Pair 0 5, 2 3:      -3.14553431
Pair 0 5, 2 4:      -3.14553431
Pair 0 5, 2 5:      -5.37069193
Pair 0 6, 1 0:      -0.14627083
Pair 0 6, 1 1:      -0.54600741
Pair 0 6, 1 2:      -0.48748420
Pair 0 6, 1 3:      -0.28652331
Pair 0 6, 1 4:      -0.30622905
Pair 0 6, 1 5:      -0.24055348
Pair 0 6, 1 6:      -0.12478359
Pair 0 6, 1 7:      -0.10781499
Pair 0 6, 1 8:      -0.12775247
Pair 0 6, 2 0:      -3.30706021
Pair 0 6, 2 1:      -2.08224692
Pair 0 6, 2 2:      -2.08224692
Pair 0 6, 2 3:      -3.14249423
Pair 0 6, 2 4:      -3.14249423
Pair 0 6, 2 5:      -5.02593102
Pair 0 7, 1 0:      -0.15885350
Pair 0 7, 1 1:      -0.52047560
Pair 0 7, 1 2:      -0.38699230
Pair 0 7, 1 3:      -0.29523716
Pair 0 7, 1 4:      -0.32198084
Pair 0 7, 1 5:      -0.25428586
Pair 0 7, 1 6:      -0.13930002
Pair 0 7, 1 7:      -0.12788200
Pair 0 7, 1 8:      -0.12757727
Pair 0 7, 2 0:      -3.50738422
Pair 0 7, 2 1:      -2.19672750
Pair 0 7, 2 2:      -2.19672750
Pair 0 7, 2 3:      -3.25999110
Pair 0 7, 2 4:      -3.25999110
Pair 0 7, 2 5:      -5.66398754
Pair 0 8, 1 0:      -0.20666138
Pair 0 8, 1 1:      -0.51441649
Pair 0 8, 1 2:      -0.45684685
Pair 0 8, 1 3:      -0.27086506
Pair 0 8, 1 4:      -0.29327878
Pair 0 8, 1 5:      -0.26688845
Pair 0 8, 1 6:      -0.19893900
Pair 0 8, 1 7:      -0.17122876
Pair 0 8, 1 8:      -0.18028758
Pair 0 8, 2 0:      -3.31993279
Pair 0 8, 2 1:      -2.14610341
Pair 0 8, 2 2:      -2.14610341
Pair 0 8, 2 3:      -3.11217827
Pair 0 8, 2 4:      -3.11217827
Pair 0 8, 2 5:      -5.30927865
Pair 1 0, 2 0:      -3.28937206
Pair 1 0, 2 1:      -5.69713833
Pair 1 0, 2 2:      -5.69713833
Pair 1 0, 2 3:      -3.40067354
Pair 1 0, 2 4:      -3.40067354
Pair 1 0, 2 5:      -2.90208750
Pair 1 1, 2 0:      -3.40556461
Pair 1 1, 2 1:      -4.41909852
Pair 1 1, 2 2:      -4.41909852
Pair 1 1, 2 3:      -3.57653655
Pair 1 1, 2 4:      -3.57653655
Pair 1 1, 2 5:      -2.65590855
Pair 1 2, 2 0:      -4.39828088
Pair 1 2, 2 1:      -5.07405288
Pair 1 2, 2 2:      -5.07405288
Pair 1 2, 2 3:      -4.72133551
Pair 1 2, 2 4:      -4.72133551
Pair 1 2, 2 5:      -3.01624201
Pair 1 3, 2 0:      -0.44566440
Pair 1 3, 2 1:       0.40293216
Pair 1 3, 2 2:       0.40293216
Pair 1 3, 2 3:      -0.56983227
Pair 1 3, 2 4:      -0.56983227
Pair 1 3, 2 5:       0.05255880
Pair 1 4, 2 0:      -0.12236430
Pair 1 4, 2 1:       2.45217285
Pair 1 4, 2 2:       2.45217285
Pair 1 4, 2 3:      -0.18559852
Pair 1 4, 2 4:      -0.18559852
Pair 1 4, 2 5:       0.21041383
Pair 1 5, 2 0:      -3.04667352
Pair 1 5, 2 1:      -5.06447180
Pair 1 5, 2 2:      -5.06447180
Pair 1 5, 2 3:      -3.15467878
Pair 1 5, 2 4:      -3.15467878
Pair 1 5, 2 5:      -2.71282782
Pair 1 6, 2 0:      -3.32382258
Pair 1 6, 2 1:      -5.76263054
Pair 1 6, 2 2:      -5.76263054
Pair 1 6, 2 3:      -3.44029052
Pair 1 6, 2 4:      -3.44029052
Pair 1 6, 2 5:      -2.94784895
Pair 1 7, 2 0:      -3.02141569
Pair 1 7, 2 1:      -4.47674713
Pair 1 7, 2 2:      -4.47674713
Pair 1 7, 2 3:      -3.12216363
Pair 1 7, 2 4:      -3.12216363
Pair 1 7, 2 5:      -2.82699408
Pair 1 8, 2 0:      -3.52688930
Pair 1 8, 2 1:      -5.11979512
Pair 1 8, 2 2:      -5.11979512
Pair 1 8, 2 3:      -3.59549810
Pair 1 8, 2 4:      -3.59549810
Pair 1 8, 2 5:      -3.81461239
