Self 0 0:      -8.17401621
Self 0 1:   91352.80399295
Self 0 2:              NaN
Self 0 3:      31.39572674
Self 0 4:      34.47269079
Self 0 5:     -12.74957648
Self 0 6:     -11.90067095
Self 0 7:      -9.87928487
Self 0 8:      -8.56475413
Self 1 0:      -6.12863818
Self 1 1:      -1.62032264
Self 1 2:      -3.35295273
Self 1 3:  156195.03293448
Self 1 4:  156174.96916578
Self 1 5:       0.46429619
Self 1 6:      -0.37708281
Self 1 7:      86.96519181
Self 1 8:      86.89754991
Self 2 0:       1.70738728
Self 2 1:    1177.13722091
Self 2 2:    1177.13722091
Self 2 3:      15.23713328
Self 2 4:      15.23713328
Self 2 5:     234.06151813
Pair 0 0, 1 0:       0.14043430
Pair 0 0, 1 1:       0.01195366
Pair 0 0, 1 2:      -0.05115945
Pair 0 0, 1 3:       0.06915451
Pair 0 0, 1 4:       0.04591859
Pair 0 0, 1 5:       0.11804989
Pair 0 0, 1 6:       0.12900433
Pair 0 0, 1 7:       0.15680377
Pair 0 0, 1 8:       0.16424711
Pair 0 0, 2 0:      -3.22313074
Pair 0 0, 2 1:      -2.72793238
Pair 0 0, 2 2:      -2.72793238
Pair 0 0, 2 3:      -3.05975443
Pair 0 0, 2 4:      -3.05975443
Pair 0 0, 2 5:      -5.88989966
Pair 0 1, 1 0:       0.06028478
Pair 0 1, 1 1:      -0.05817414
Pair 0 1, 1 2:      -0.03073185
Pair 0 1, 1 3:              NaN
Pair 0 1, 1 4:              NaN
Pair 0 1, 1 5:       0.01943069
Pair 0 1, 1 6:       0.06035178
Pair 0 1, 1 7:       0.03501708
Pair 0 1, 1 8:       0.06912528
Pair 0 1, 2 0:      -4.59523184
Pair 0 1, 2 1:      -3.31963287
Pair 0 1, 2 2:      -3.31963287
Pair 0 1, 2 3:              NaN
Pair 0 1, 2 4:              NaN
Pair 0 1, 2 5:              NaN
Pair 0 2, 1 0:              NaN
Pair 0 2, 1 1:              NaN
Pair 0 2, 1 2:              NaN
Pair 0 2, 1 3:              NaN
Pair 0 2, 1 4:              NaN
Pair 0 2, 1 5:              NaN
Pair 0 2, 1 6:              NaN
Pair 0 2, 1 7:              NaN
Pair 0 2, 1 8:              NaN
Pair 0 2, 2 0:              NaN
Pair 0 2, 2 1:              NaN
Pair 0 2, 2 2:              NaN
Pair 0 2, 2 3:              NaN
Pair 0 2, 2 4:              NaN
Pair 0 2, 2 5:              NaN
Pair 0 3, 1 0:       0.01472556
Pair 0 3, 1 1:      -1.68669820
Pair 0 3, 1 2:      -1.14123773
Pair 0 3, 1 3:      -0.11832076
Pair 0 3, 1 4:      -0.25707272
Pair 0 3, 1 5:      -0.03961636
Pair 0 3, 1 6:       0.02357428
Pair 0 3, 1 7:       0.05439496
Pair 0 3, 1 8:       0.09677909
Pair 0 3, 2 0:      -5.90197818
Pair 0 3, 2 1:      -4.83339402
Pair 0 3, 2 2:      -4.83339402
Pair 0 3, 2 3:      -6.53722637
Pair 0 3, 2 4:      -6.53722637
Pair 0 3, 2 5:      -9.08539776
Pair 0 4, 1 0:      -0.23628268
Pair 0 4, 1 1:      -1.68576439
Pair 0 4, 1 2:      -2.44153948
Pair 0 4, 1 3:      -0.33201447
Pair 0 4, 1 4:      -0.36023313
Pair 0 4, 1 5:      -0.24330872
Pair 0 4, 1 6:      -0.24621065
Pair 0 4, 1 7:      -0.19946901
Pair 0 4, 1 8:      -0.17988476
Pair 0 4, 2 0:      -3.41246675
Pair 0 4, 2 1:      -2.90145153
Pair 0 4, 2 2:      -2.90145153
Pair 0 4, 2 3:      -3.52433807
Pair 0 4, 2 4:      -3.52433807
Pair 0 4, 2 5:      -7.38526417
Pair 0 5, 1 0:       0.13529240
Pair 0 5, 1 1:      -0.05398108
Pair 0 5, 1 2:      -0.07886377
Pair 0 5, 1 3:       0.06159125
Pair 0 5, 1 4:       0.04128450
Pair 0 5, 1 5:       0.08929433
Pair 0 5, 1 6:       0.12586880
Pair 0 5, 1 7:       0.14468571
Pair 0 5, 1 8:       0.17309834
Pair 0 5, 2 0:      -3.10168709
Pair 0 5, 2 1:      -2.66603157
Pair 0 5, 2 2:      -2.66603157
Pair 0 5, 2 3:      -2.96958931
Pair 0 5, 2 4:      -2.96958931
Pair 0 5, 2 5:      -5.33445630
Pair 0 6, 1 0:       0.13372560
Pair 0 6, 1 1:      -0.01103638
Pair 0 6, 1 2:      -0.13632272
Pair 0 6, 1 3:       0.07650994
Pair 0 6, 1 4:       0.04938691
Pair 0 6, 1 5:       0.11705529
Pair 0 6, 1 6:       0.11751257
Pair 0 6, 1 7:       0.15166966
Pair 0 6, 1 8:       0.14681020
Pair 0 6, 2 0:      -2.93799581
Pair 0 6, 2 1:      -2.55386300
Pair 0 6, 2 2:      -2.55386300
Pair 0 6, 2 3:      -2.84794529
Pair 0 6, 2 4:      -2.84794529
Pair 0 6, 2 5:      -4.92286176
Pair 0 7, 1 0:       0.12722716
Pair 0 7, 1 1:      -0.03917370
Pair 0 7, 1 2:       0.00859189
Pair 0 7, 1 3:       0.05930444
Pair 0 7, 1 4:       0.03091597
Pair 0 7, 1 5:       0.09029608
Pair 0 7, 1 6:       0.11349754
Pair 0 7, 1 7:       0.13323989
Pair 0 7, 1 8:       0.14944685
Pair 0 7, 2 0:      -3.34818140
Pair 0 7, 2 1:      -2.74580892
Pair 0 7, 2 2:      -2.74580892
Pair 0 7, 2 3:      -3.18900305
Pair 0 7, 2 4:      -3.18900305
Pair 0 7, 2 5:      -5.73297021
Pair 0 8, 1 0:       0.08938956
Pair 0 8, 1 1:      -0.00180296
Pair 0 8, 1 2:      -0.03830074
Pair 0 8, 1 3:       0.06742373
Pair 0 8, 1 4:       0.04790522
Pair 0 8, 1 5:       0.08771524
Pair 0 8, 1 6:       0.06901518
Pair 0 8, 1 7:       0.09089477
Pair 0 8, 1 8:       0.10686227
Pair 0 8, 2 0:      -3.07075972
Pair 0 8, 2 1:      -2.64471736
Pair 0 8, 2 2:      -2.64471736
Pair 0 8, 2 3:      -2.93095689
Pair 0 8, 2 4:      -2.93095689
Pair 0 8, 2 5:      -5.33697413
Pair 1 0, 2 0:      -3.97589509
Pair 1 0, 2 1:      -5.70628780
Pair 1 0, 2 2:      -5.70628780
Pair 1 0, 2 3:      -4.06334884
Pair 1 0, 2 4:      -4.06334884
Pair 1 0, 2 5:      -3.96317024
Pair 1 1, 2 0:      -3.71714309
Pair 1 1, 2 1:      -4.56755845
Pair 1 1, 2 2:      -4.56755845
Pair 1 1, 2 3:      -3.84221401
Pair 1 1, 2 4:      -3.84221401
Pair 1 1, 2 5:      -3.55265690
Pair 1 2, 2 0:      -4.43831803
Pair 1 2, 2 1:      -5.11580786
Pair 1 2, 2 2:      -5.11580786
Pair 1 2, 2 3:      -4.67998765
Pair 1 2, 2 4:      -4.67998765
Pair 1 2, 2 5:      -3.74453097
Pair 1 3, 2 0:      -2.90951597
Pair 1 3, 2 1:              NaN
Pair 1 3, 2 2:              NaN
Pair 1 3, 2 3:      -3.01428924
Pair 1 3, 2 4:      -3.01428924
Pair 1 3, 2 5:              NaN
Pair 1 4, 2 0:      -1.63344766
Pair 1 4, 2 1:              NaN
Pair 1 4, 2 2:              NaN
Pair 1 4, 2 3:      -1.81734153
Pair 1 4, 2 4:      -1.81734153
Pair 1 4, 2 5:      -2.13817795
Pair 1 5, 2 0:      -3.72341561
Pair 1 5, 2 1:      -5.13575730
Pair 1 5, 2 2:      -5.13575730
Pair 1 5, 2 3:      -3.82721857
Pair 1 5, 2 4:      -3.82721857
Pair 1 5, 2 5:      -3.67004348
Pair 1 6, 2 0:      -4.03151865
Pair 1 6, 2 1:      -5.82461959
Pair 1 6, 2 2:      -5.82461959
Pair 1 6, 2 3:      -4.11882599
Pair 1 6, 2 4:      -4.11882599
Pair 1 6, 2 5:      -4.02094433
Pair 1 7, 2 0:      -3.70804577
Pair 1 7, 2 1:      -4.46039352
Pair 1 7, 2 2:      -4.46039352
Pair 1 7, 2 3:      -3.82489073
Pair 1 7, 2 4:      -3.82489073
Pair 1 7, 2 5:      -3.89743241
Pair 1 8, 2 0:      -4.04676291
Pair 1 8, 2 1:      -4.87846598
Pair 1 8, 2 2:      -4.87846598
Pair 1 8, 2 3:      -4.13516313
Pair 1 8, 2 4:      -4.13516313
Pair 1 8, 2 5:      -4.63250815
Self 0 0:      -8.17401621
Self 0 1:   91352.80399295
Self 0 2:              NaN
Self 0 3:      31.39572674
Self 0 4:      34.47269079
Self 0 5:     -12.74957648
Self 0 6:     -11.90067095
Self 0 7:      -9.87928487
Self 0 8:      -8.56475413
Self 1 0:      -6.12863818
Self 1 1:      -1.62032264
Self 1 2:      -3.35295273
Self 1 3:  156195.03293448
Self 1 4:  156174.96916578
Self 1 5:       0.46429619
Self 1 6:      -0.37708281
Self 1 7:      86.96519181
Self 1 8:      86.89754991
Self 2 0:       1.70738728
Self 2 1:    1177.13722091
Self 2 2:    1177.13722091
Self 2 3:      15.23713328
Self 2 4:      15.23713328
Self 2 5:     234.06151813
Pair 0 0, 1 0:       0.14043430
Pair 0 0, 1 1:       0.01195366
Pair 0 0, 1 2:      -0.05115945
Pair 0 0, 1 3:       0.06915451
Pair 0 0, 1 4:       0.04591859
Pair 0 0, 1 5:       0.11804989
Pair 0 0, 1 6:       0.12900433
Pair 0 0, 1 7:       0.15680377
Pair 0 0, 1 8:       0.16424711
Pair 0 0, 2 0:      -3.22313074
Pair 0 0, 2 1:      -2.72793238
Pair 0 0, 2 2:      -2.72793238
Pair 0 0, 2 3:      -3.05975443
Pair 0 0, 2 4:      -3.05975443
Pair 0 0, 2 5:      -5.88989966
Pair 0 1, 1 0:       0.06028478
Pair 0 1, 1 1:      -0.05817414
Pair 0 1, 1 2:      -0.03073185
Pair 0 1, 1 3:              NaN
Pair 0 1, 1 4:              NaN
Pair 0 1, 1 5:       0.01943069
Pair 0 1, 1 6:       0.06035178
Pair 0 1, 1 7:       0.03501708
Pair 0 1, 1 8:       0.06912528
Pair 0 1, 2 0:      -4.59523184
Pair 0 1, 2 1:      -3.31963287
Pair 0 1, 2 2:      -3.31963287
Pair 0 1, 2 3:              NaN
Pair 0 1, 2 4:              NaN
Pair 0 1, 2 5:              NaN
Pair 0 3, 1 0:       0.01472556
Pair 0 3, 1 1:      -1.68669820
Pair 0 3, 1 2:      -1.14123773
Pair 0 3, 1 3:      -0.11832076
Pair 0 3, 1 4:      -0.25707272
Pair 0 3, 1 5:      -0.03961636
Pair 0 3, 1 6:       0.02357428
Pair 0 3, 1 7:       0.05439496
Pair 0 3, 1 8:       0.09677909
Pair 0 3, 2 0:      -5.90197818
Pair 0 3, 2 1:      -4.83339402
Pair 0 3, 2 2:      -4.83339402
Pair 0 3, 2 3:      -6.53722637
Pair 0 3, 2 4:      -6.53722637
Pair 0 3, 2 5:      -9.08539776
Pair 0 4, 1 0:      -0.23628268
Pair 0 4, 1 1:      -1.68576439
Pair 0 4, 1 2:      -2.44153948
Pair 0 4, 1 3:      -0.33201447
Pair 0 4, 1 4:      -0.36023313
Pair 0 4, 1 5:      -0.24330872
Pair 0 4, 1 6:      -0.24621065
Pair 0 4, 1 7:      -0.19946901
Pair 0 4, 1 8:      -0.17988476
Pair 0 4, 2 0:      -3.41246675
Pair 0 4, 2 1:      -2.90145153
Pair 0 4, 2 2:      -2.90145153
Pair 0 4, 2 3:      -3.52433807
Pair 0 4, 2 4:      -3.52433807
Pair 0 4, 2 5:      -7.38526417
Pair 0 5, 1 0:       0.13529240
Pair 0 5, 1 1:      -0.05398108
Pair 0 5, 1 2:      -0.07886377
Pair 0 5, 1 3:       0.06159125
Pair 0 5, 1 4:       0.04128450
Pair 0 5, 1 5:       0.08929433
Pair 0 5, 1 6:       0.12586880
Pair 0 5, 1 7:       0.14468571
Pair 0 5, 1 8:       0.17309834
Pair 0 5, 2 0:      -3.10168709
Pair 0 5, 2 1:      -2.66603157
Pair 0 5, 2 2:      -2.66603157
Pair 0 5, 2 3:      -2.96958931
Pair 0 5, 2 4:      -2.96958931
Pair 0 5, 2 5:      -5.33445630
Pair 0 6, 1 0:       0.13372560
Pair 0 6, 1 1:      -0.01103638
Pair 0 6, 1 2:      -0.13632272
Pair 0 6, 1 3:       0.07650994
Pair 0 6, 1 4:       0.04938691
Pair 0 6, 1 5:       0.11705529
Pair 0 6, 1 6:       0.11751257
Pair 0 6, 1 7:       0.15166966
Pair 0 6, 1 8:       0.14681020
Pair 0 6, 2 0:      -2.93799581
Pair 0 6, 2 1:      -2.55386300
Pair 0 6, 2 2:      -2.55386300
Pair 0 6, 2 3:      -2.84794529
Pair 0 6, 2 4:      -2.84794529
Pair 0 6, 2 5:      -4.92286176
Pair 0 7, 1 0:       0.12722716
Pair 0 7, 1 1:      -0.03917370
Pair 0 7, 1 2:       0.00859189
Pair 0 7, 1 3:       0.05930444
Pair 0 7, 1 4:       0.03091597
Pair 0 7, 1 5:       0.09029608
Pair 0 7, 1 6:       0.11349754
Pair 0 7, 1 7:       0.13323989
Pair 0 7, 1 8:       0.14944685
Pair 0 7, 2 0:      -3.34818140
Pair 0 7, 2 1:      -2.74580892
Pair 0 7, 2 2:      -2.74580892
Pair 0 7, 2 3:      -3.18900305
Pair 0 7, 2 4:      -3.18900305
Pair 0 7, 2 5:      -5.73297021
Pair 0 8, 1 0:       0.08938956
Pair 0 8, 1 1:      -0.00180296
Pair 0 8, 1 2:      -0.03830074
Pair 0 8, 1 3:       0.06742373
Pair 0 8, 1 4:       0.04790522
Pair 0 8, 1 5:       0.08771524
Pair 0 8, 1 6:       0.06901518
Pair 0 8, 1 7:       0.09089477
Pair 0 8, 1 8:       0.10686227
Pair 0 8, 2 0:      -3.07075972
Pair 0 8, 2 1:      -2.64471736
Pair 0 8, 2 2:      -2.64471736
Pair 0 8, 2 3:      -2.93095689
Pair 0 8, 2 4:      -2.93095689
Pair 0 8, 2 5:      -5.33697413
Pair 1 0, 2 0:      -3.97589509
Pair 1 0, 2 1:      -5.70628780
Pair 1 0, 2 2:      -5.70628780
Pair 1 0, 2 3:      -4.06334884
Pair 1 0, 2 4:      -4.06334884
Pair 1 0, 2 5:      -3.96317024
Pair 1 1, 2 0:      -3.71714309
Pair 1 1, 2 1:      -4.56755845
Pair 1 1, 2 2:      -4.56755845
Pair 1 1, 2 3:      -3.84221401
Pair 1 1, 2 4:      -3.84221401
Pair 1 1, 2 5:      -3.55265690
Pair 1 2, 2 0:      -4.43831803
Pair 1 2, 2 1:      -5.11580786
Pair 1 2, 2 2:      -5.11580786
Pair 1 2, 2 3:      -4.67998765
Pair 1 2, 2 4:      -4.67998765
Pair 1 2, 2 5:      -3.74453097
Pair 1 3, 2 0:      -2.90951597
Pair 1 3, 2 1:              NaN
Pair 1 3, 2 2:              NaN
Pair 1 3, 2 3:      -3.01428924
Pair 1 3, 2 4:      -3.01428924
Pair 1 3, 2 5:              NaN
Pair 1 4, 2 0:      -1.63344766
Pair 1 4, 2 1:              NaN
Pair 1 4, 2 2:              NaN
Pair 1 4, 2 3:      -1.81734153
Pair 1 4, 2 4:      -1.81734153
Pair 1 4, 2 5:      -2.13817795
Pair 1 5, 2 0:      -3.72341561
Pair 1 5, 2 1:      -5.13575730
Pair 1 5, 2 2:      -5.13575730
Pair 1 5, 2 3:      -3.82721857
Pair 1 5, 2 4:      -3.82721857
Pair 1 5, 2 5:      -3.67004348
Pair 1 6, 2 0:      -4.03151865
Pair 1 6, 2 1:      -5.82461959
Pair 1 6, 2 2:      -5.82461959
Pair 1 6, 2 3:      -4.11882599
Pair 1 6, 2 4:      -4.11882599
Pair 1 6, 2 5:      -4.02094433
Pair 1 7, 2 0:      -3.70804577
Pair 1 7, 2 1:      -4.46039352
Pair 1 7, 2 2:      -4.46039352
Pair 1 7, 2 3:      -3.82489073
Pair 1 7, 2 4:      -3.82489073
Pair 1 7, 2 5:      -3.89743241
Pair 1 8, 2 0:      -4.04676291
Pair 1 8, 2 1:      -4.87846598
Pair 1 8, 2 2:      -4.87846598
Pair 1 8, 2 3:      -4.13516313
Pair 1 8, 2 4:      -4.13516313
Pair 1 8, 2 5:      -4.63250815
