Self 0 0:      -8.17401621
Self 0 1:   91352.80399295
Self 0 2: 10000000000000000000000000000000000000000000000000000000000000000000000000000000000000000000000000000.00000000
Self 0 3:      31.39572674
Self 0 4:      34.47269079
Self 0 5:     -12.74957648
Self 0 6:     -11.90067095
Self 0 7:      -9.87928487
Self 0 8:      -8.56475413
Self 1 0:      -6.12863818
Self 1 1:      -1.62032264
Self 1 2:      -3.35295273
Self 1 3:  156195.03293448
Self 1 4:  156174.96916578
Self 1 5:       0.46429619
Self 1 6:      -0.37708281
Self 1 7:      86.96519181
Self 1 8:      86.89754991
Self 2 0:       1.70738728
Self 2 1:    1177.13722091
Self 2 2:    1177.13722091
Self 2 3:      15.23713328
Self 2 4:      15.23713328
Self 2 5:     234.06151813
Pair 0 0, 1 0:       0.14043430
Pair 0 0, 1 1:       0.01195366
Pair 0 0, 1 2:      -0.05115945
Pair 0 0, 1 5:       0.11804989
Pair 0 0, 1 6:       0.12900433
Pair 0 0, 2 0:      -3.22313074
Pair 0 0, 2 3:      -3.05975443
Pair 0 0, 2 4:      -3.05975443
Pair 0 5, 1 0:       0.13529240
Pair 0 5, 1 1:      -0.05398108
Pair 0 5, 1 2:      -0.07886377
Pair 0 5, 1 5:       0.08929433
Pair 0 5, 1 6:       0.12586880
Pair 0 5, 2 0:      -3.10168709
Pair 0 5, 2 3:      -2.96958931
Pair 0 5, 2 4:      -2.96958931
Pair 0 6, 1 0:       0.13372560
Pair 0 6, 1 1:      -0.01103638
Pair 0 6, 1 2:      -0.13632272
Pair 0 6, 1 5:       0.11705529
Pair 0 6, 1 6:       0.11751257
Pair 0 6, 2 0:      -2.93799581
Pair 0 6, 2 3:      -2.84794529
Pair 0 6, 2 4:      -2.84794529
Pair 0 7, 1 0:       0.12722716
Pair 0 7, 1 1:      -0.03917370
Pair 0 7, 1 2:       0.00859189
Pair 0 7, 1 5:       0.09029608
Pair 0 7, 1 6:       0.11349754
Pair 0 7, 2 0:      -3.34818140
Pair 0 7, 2 3:      -3.18900305
Pair 0 7, 2 4:      -3.18900305
Pair 0 8, 1 0:       0.08938956
Pair 0 8, 1 1:      -0.00180296
Pair 0 8, 1 2:      -0.03830074
Pair 0 8, 1 5:       0.08771524
Pair 0 8, 1 6:       0.06901518
Pair 0 8, 2 0:      -3.07075972
Pair 0 8, 2 3:      -2.93095689
Pair 0 8, 2 4:      -2.93095689
Pair 1 0, 2 0:      -3.97589509
Pair 1 0, 2 3:      -4.06334884
Pair 1 0, 2 4:      -4.06334884
Pair 1 1, 2 0:      -3.71714309
Pair 1 1, 2 3:      -3.84221401
Pair 1 1, 2 4:      -3.84221401
Pair 1 2, 2 0:      -4.43831803
Pair 1 2, 2 3:      -4.67998765
Pair 1 2, 2 4:      -4.67998765
Pair 1 5, 2 0:      -3.72341561
Pair 1 5, 2 3:      -3.82721857
Pair 1 5, 2 4:      -3.82721857
Pair 1 6, 2 0:      -4.03151865
Pair 1 6, 2 3:      -4.11882599
Pair 1 6, 2 4:      -4.11882599
Triple 0 0, 1 0, 2 0:       0.07448368
Triple 0 0, 1 0, 2 3:       0.07479223
Triple 0 0, 1 0, 2 4:       0.07479223
Triple 0 0, 1 1, 2 0:       0.04572715
Triple 0 0, 1 1, 2 3:       0.04576707
Triple 0 0, 1 1, 2 4:       0.04576707
Triple 0 0, 1 2, 2 0:       0.05740782
Triple 0 0, 1 2, 2 3:       0.05428333
Triple 0 0, 1 2, 2 4:       0.05428333
Triple 0 0, 1 5, 2 0:       0.06722320
Triple 0 0, 1 5, 2 3:       0.06843784
Triple 0 0, 1 5, 2 4:       0.06843784
Triple 0 0, 1 6, 2 0:       0.07464939
Triple 0 0, 1 6, 2 3:       0.07465136
Triple 0 0, 1 6, 2 4:       0.07465136
Triple 0 5, 1 0, 2 0:       0.07822321
Triple 0 5, 1 0, 2 3:       0.07928142
Triple 0 5, 1 0, 2 4:       0.07928142
Triple 0 5, 1 1, 2 0:       0.05453234
Triple 0 5, 1 1, 2 3:       0.05541825
Triple 0 5, 1 1, 2 4:       0.05541825
Triple 0 5, 1 2, 2 0:       0.06530649
Triple 0 5, 1 2, 2 3:       0.06282358
Triple 0 5, 1 2, 2 4:       0.06282358
Triple 0 5, 1 5, 2 0:       0.07166070
Triple 0 5, 1 5, 2 3:       0.07354610
Triple 0 5, 1 5, 2 4:       0.07354610
Triple 0 5, 1 6, 2 0:       0.07819705
Triple 0 5, 1 6, 2 3:       0.07902203
Triple 0 5, 1 6, 2 4:       0.07902203
Triple 0 6, 1 0, 2 0:       0.07155281
Triple 0 6, 1 0, 2 3:       0.07278001
Triple 0 6, 1 0, 2 4:       0.07278001
Triple 0 6, 1 1, 2 0:       0.03290258
Triple 0 6, 1 1, 2 3:       0.03323835
Triple 0 6, 1 1, 2 4:       0.03323835
Triple 0 6, 1 2, 2 0:       0.04454283
Triple 0 6, 1 2, 2 3:       0.04154729
Triple 0 6, 1 2, 2 4:       0.04154729
Triple 0 6, 1 5, 2 0:       0.06473365
Triple 0 6, 1 5, 2 3:       0.06680046
Triple 0 6, 1 5, 2 4:       0.06680046
Triple 0 6, 1 6, 2 0:       0.07163736
Triple 0 6, 1 6, 2 3:       0.07265967
Triple 0 6, 1 6, 2 4:       0.07265967
Triple 0 7, 1 0, 2 0:       0.08276074
Triple 0 7, 1 0, 2 3:       0.08327987
Triple 0 7, 1 0, 2 4:       0.08327987
Triple 0 7, 1 1, 2 0:       0.06305786
Triple 0 7, 1 1, 2 3:       0.06391621
Triple 0 7, 1 1, 2 4:       0.06391621
Triple 0 7, 1 2, 2 0:       0.07624121
Triple 0 7, 1 2, 2 3:       0.07417567
Triple 0 7, 1 2, 2 4:       0.07417567
Triple 0 7, 1 5, 2 0:       0.07425928
Triple 0 7, 1 5, 2 3:       0.07564014
Triple 0 7, 1 5, 2 4:       0.07564014
Triple 0 7, 1 6, 2 0:       0.08271284
Triple 0 7, 1 6, 2 3:       0.08296341
Triple 0 7, 1 6, 2 4:       0.08296341
Triple 0 8, 1 0, 2 0:       0.07075030
Triple 0 8, 1 0, 2 3:       0.07098158
Triple 0 8, 1 0, 2 4:       0.07098158
Triple 0 8, 1 1, 2 0:       0.04442050
Triple 0 8, 1 1, 2 3:       0.04381881
Triple 0 8, 1 1, 2 4:       0.04381881
Triple 0 8, 1 2, 2 0:       0.05829679
Triple 0 8, 1 2, 2 3:       0.05481818
Triple 0 8, 1 2, 2 4:       0.05481818
Triple 0 8, 1 5, 2 0:       0.06110382
Triple 0 8, 1 5, 2 3:       0.06212577
Triple 0 8, 1 5, 2 4:       0.06212577
Triple 0 8, 1 6, 2 0:       0.06988292
Triple 0 8, 1 6, 2 3:       0.06977394
Triple 0 8, 1 6, 2 4:       0.06977394
