Self 0 0:      -8.17401621
Self 0 1:   91352.80399295
Self 0 2:              NaN
Self 0 3:      31.39572674
Self 0 4:      34.47269079
Self 0 5:     -12.74957648
Self 0 6:     -11.90067095
Self 0 7:      -9.87928487
Self 0 8:      -8.56475413
Self 1 0:      -6.12863818
Self 1 1:      -1.62032264
Self 1 2:      -3.35295273
Self 1 3:  156195.03293448
Self 1 4:  156174.96916578
Self 1 5:       0.46429619
Self 1 6:      -0.37708281
Self 1 7:      86.96519181
Self 1 8:      86.89754991
Self 2 0:       1.70738728
Self 2 1:    1177.13722091
Self 2 2:    1177.13722091
Self 2 3:      15.23713328
Self 2 4:      15.23713328
Self 2 5:     234.06151813
Pair 0 0, 1 0:       0.14043430
Pair 0 0, 1 1:       0.01195366
Pair 0 0, 1 2:      -0.05115945
Pair 0 0, 1 5:       0.11804989
Pair 0 0, 1 6:       0.12900433
Pair 0 0, 2 0:      -3.22313074
Pair 0 0, 2 3:      -3.05975443
Pair 0 0, 2 4:      -3.05975443
Pair 0 5, 1 0:       0.13529240
Pair 0 5, 1 1:      -0.05398108
Pair 0 5, 1 2:      -0.07886377
Pair 0 5, 1 5:       0.08929433
Pair 0 5, 1 6:       0.12586880
Pair 0 5, 2 0:      -3.10168709
Pair 0 5, 2 3:      -2.96958931
Pair 0 5, 2 4:      -2.96958931
Pair 0 6, 1 0:       0.13372560
Pair 0 6, 1 1:      -0.01103638
Pair 0 6, 1 2:      -0.13632272
Pair 0 6, 1 5:       0.11705529
Pair 0 6, 1 6:       0.11751257
Pair 0 6, 2 0:      -2.93799581
Pair 0 6, 2 3:      -2.84794529
Pair 0 6, 2 4:      -2.84794529
Pair 0 7, 1 0:       0.12722716
Pair 0 7, 1 1:      -0.03917370
Pair 0 7, 1 2:       0.00859189
Pair 0 7, 1 5:       0.09029608
Pair 0 7, 1 6:       0.11349754
Pair 0 7, 2 0:      -3.34818140
Pair 0 7, 2 3:      -3.18900305
Pair 0 7, 2 4:      -3.18900305
Pair 0 8, 1 0:       0.08938956
Pair 0 8, 1 1:      -0.00180296
Pair 0 8, 1 2:      -0.03830074
Pair 0 8, 1 5:       0.08771524
Pair 0 8, 1 6:       0.06901518
Pair 0 8, 2 0:      -3.07075972
Pair 0 8, 2 3:      -2.93095689
Pair 0 8, 2 4:      -2.93095689
Pair 1 0, 2 0:      -3.97589509
Pair 1 0, 2 3:      -4.06334884
Pair 1 0, 2 4:      -4.06334884
Pair 1 1, 2 0:      -3.71714309
Pair 1 1, 2 3:      -3.84221401
Pair 1 1, 2 4:      -3.84221401
Pair 1 2, 2 0:      -4.43831803
Pair 1 2, 2 3:      -4.67998765
Pair 1 2, 2 4:      -4.67998765
Pair 1 5, 2 0:      -3.72341561
Pair 1 5, 2 3:      -3.82721857
Pair 1 5, 2 4:      -3.82721857
Pair 1 6, 2 0:      -4.03151865
Pair 1 6, 2 3:      -4.11882599
Pair 1 6, 2 4:      -4.11882599
