Self 0 0:      72.50017443
Self 0 1:       6.21922192
Self 0 2:       0.30115237
Self 0 3:       4.61904882
Self 0 4:     -14.71877741
Self 0 5:     -17.56913182
Self 0 6:     -14.13073817
Self 0 7:      39.26531008
Self 0 8:      29.45418335
Self 0 9:      -8.07778029
Self 0 10:     -17.93163851
Self 0 11:      -4.66345283
Self 0 12:       0.30115237
Self 0 13:       4.61904882
Self 0 14:     -14.71877741
Self 0 15:     -17.56913182
Self 0 16:     -14.13073817
Self 0 17:      39.26531008
Self 0 18:      29.45418335
Self 0 19:      -8.07778029
Self 0 20:     -17.93163851
Self 0 21:      -4.66345283
Self 0 22:      80.00378304
Self 0 23:      80.00378304
Self 0 24:      63.34412521
Self 0 25:      63.34412521
Self 0 26:      74.78720148
Self 1 0:      76.76945110
Self 1 1:       0.10910174
Self 1 2:   10114.43418174
Self 1 3:       0.65114853
Self 1 4:      -7.45207120
Self 1 5:      -9.23224560
Self 1 6:      -8.57547613
Self 1 7:      -5.63961134
Self 1 8:      -9.75252722
Self 1 9:      -9.06625524
Self 1 10:      -5.26039780
Self 1 11:      22.22646681
Self 1 12:      -4.72990778
Self 1 13:      -6.44322750
Self 1 14:       0.81738397
Self 1 15:      -1.95725346
Self 1 16:      -6.47526537
Self 1 17:      -5.80312861
Self 1 18:      78.66785396
Self 1 19:      85.89243940
Self 1 20:      75.55171055
Self 1 21:      75.93122210
Self 1 22:      73.37581904
Self 1 23:      78.08134703
Self 1 24:      76.32315846
Self 1 25:      78.21655689
Self 2 0:      -5.48881382
Self 2 1:     -43.18634360
Self 2 2:     -44.31612264
Self 2 3:      -6.63014066
Self 2 4:      -6.92537173
Self 2 5:       2.76340649
Self 2 6:      -8.86268971
Self 2 7:      -8.37556164
Self 2 8:      -7.42281284
Self 2 9:      -1.56758857
Self 2 10:      -7.28532213
Self 2 11:     -42.42599025
Self 2 12:     -42.29517707
Self 2 13:     -36.53231755
Self 2 14:     -47.70433691
Self 2 15:     -47.75530832
Self 2 16:     -44.51050837
Self 2 17:     -35.39601784
Self 2 18:     -44.08033271
Self 2 19:     -44.00654708
Self 2 20:     -38.96812614
Self 2 21:     -36.13929767
Self 2 22:     -45.74238079
Self 2 23:     -48.80763361
Self 2 24:     -45.13498762
Self 2 25:     -34.34627188
Self 2 26:     -45.02716725
Self 3 0:      28.31834769
Self 3 1:     -21.90318622
Self 3 2:     -20.49319973
Self 3 3:     -20.40470364
Self 3 4:     -21.96875407
Self 3 5:     -20.13169128
Self 3 6:     -20.48003308
Self 3 7:     -22.05242121
Self 3 8:     -22.89920444
Self 3 9:     -20.75476615
Self 3 10:     -21.91874201
Self 3 11:     -23.03559705
Self 3 12:     -23.59107249
Self 3 13:     -23.88727103
Self 3 14:     -22.20102209
Self 3 15:     -22.42661982
Self 3 16:     -20.83251923
Self 3 17:      -0.10383510
Self 3 18:      19.43703072
Self 3 19:     -23.25212226
Self 3 20:     -23.87155596
Self 3 21:     -24.56035607
Self 3 22:     -23.32376189
Self 3 23:     -23.52720541
Self 3 24:     -21.63526001
Self 3 25:     -22.89294789
Self 3 26:     -24.01993720
Self 3 27:     -21.29933067
Self 3 28:     -22.08699807
Self 3 29:      27.10146213
Self 3 30:      23.98339349
Self 3 31:      24.96222797
Self 3 32:      24.25133636
Self 3 33:      28.20997415
Self 3 34:      31.91864791
Self 3 35:      29.68692746
Self 3 36:      30.29409418
Self 3 37:      27.14972739
Self 3 38:      26.93003560
Self 3 39:      27.91753735
Self 3 40:      26.50079161
Self 3 41:      27.78610287
Self 3 42:      27.36421274
Self 3 43:      28.24715516
Self 3 44:      44.56974680
Self 3 45:      74.36241052
Self 3 46:      26.58738986
Self 3 47:      21.90194783
Self 3 48:      23.16368876
Self 3 49:      23.14330993
Self 3 50:      24.94297623
Self 3 51:      23.46804041
Self 3 52:      22.28731655
Self 3 53:      20.85942441
Self 3 54:      16.90695773
Self 3 55:      27.17799171
Pair 0 1, 1 1:       0.16226226
Pair 0 1, 1 3:      -0.89813107
Pair 0 1, 1 4:      -0.57698978
Pair 0 1, 1 5:       0.26282573
Pair 0 1, 1 6:       0.10898540
Pair 0 1, 1 7:     158.69790713
Pair 0 1, 1 8:       0.02205179
Pair 0 1, 1 9:      -2.49564616
Pair 0 1, 1 10:       0.09280208
Pair 0 1, 1 12:      -0.01618657
Pair 0 1, 1 13:       0.17106205
Pair 0 1, 1 14:       0.15265733
Pair 0 1, 1 15:      36.86302815
Pair 0 1, 1 16:       0.92224949
Pair 0 1, 1 17:      -2.90887737
Pair 0 2, 1 1:       0.18901519
Pair 0 2, 1 3:      -0.38062396
Pair 0 2, 1 4:       0.04385630
Pair 0 2, 1 5:       0.03343892
Pair 0 2, 1 6:       0.14668071
Pair 0 2, 1 7:       2.80469853
Pair 0 2, 1 8:       0.09390897
Pair 0 2, 1 9:       0.06625005
Pair 0 2, 1 10:       0.10597398
Pair 0 2, 1 12:       0.18079521
Pair 0 2, 1 13:       0.18169489
Pair 0 2, 1 14:       0.17973203
Pair 0 2, 1 15:      -2.03507523
Pair 0 2, 1 16:       0.01885072
Pair 0 2, 1 17:      -0.04433572
Pair 0 3, 1 1:       0.15812446
Pair 0 3, 1 3:      -0.27380728
Pair 0 3, 1 4:       0.01827088
Pair 0 3, 1 5:       0.03099336
Pair 0 3, 1 6:       0.13532907
Pair 0 3, 1 7:       3.06789269
Pair 0 3, 1 8:       0.05381784
Pair 0 3, 1 9:       0.01327649
Pair 0 3, 1 10:       0.09573820
Pair 0 3, 1 12:       0.15401027
Pair 0 3, 1 13:       0.15073036
Pair 0 3, 1 14:       0.14924266
Pair 0 3, 1 15:      -2.68025021
Pair 0 3, 1 16:      -0.08606043
Pair 0 3, 1 17:      -0.10803929
Pair 0 4, 1 1:       0.08868657
Pair 0 4, 1 3:      -0.23147533
Pair 0 4, 1 4:       0.22559653
Pair 0 4, 1 5:      -0.34379656
Pair 0 4, 1 6:       0.10117237
Pair 0 4, 1 7:     137.15699046
Pair 0 4, 1 8:      -2.40588961
Pair 0 4, 1 9:      -0.55123077
Pair 0 4, 1 10:       0.03223874
Pair 0 4, 1 12:       0.10643576
Pair 0 4, 1 13:       0.06591868
Pair 0 4, 1 14:       0.15554062
Pair 0 4, 1 15:      32.90581217
Pair 0 4, 1 16:      -2.92522690
Pair 0 4, 1 17:      -0.17487837
Pair 0 5, 1 1:       0.23596780
Pair 0 5, 1 3:      -0.76052147
Pair 0 5, 1 4:       0.22978787
Pair 0 5, 1 5:      -0.08028611
Pair 0 5, 1 6:       0.25763846
Pair 0 5, 1 7:   16176.76589989
Pair 0 5, 1 8:      -0.12729042
Pair 0 5, 1 9:       0.62858373
Pair 0 5, 1 10:       0.23701710
Pair 0 5, 1 12:       0.09325813
Pair 0 5, 1 13:       0.25102660
Pair 0 5, 1 14:       0.33945559
Pair 0 5, 1 15:    7170.29899729
Pair 0 5, 1 16:       0.48237646
Pair 0 5, 1 17:       1.61004899
Pair 0 6, 1 1:       0.20383388
Pair 0 6, 1 3:      -0.17200990
Pair 0 6, 1 4:       0.06314029
Pair 0 6, 1 5:       0.06635457
Pair 0 6, 1 6:       0.14914124
Pair 0 6, 1 7:       3.39231991
Pair 0 6, 1 8:       0.12894186
Pair 0 6, 1 9:       0.08487019
Pair 0 6, 1 10:       0.15749645
Pair 0 6, 1 12:       0.18773517
Pair 0 6, 1 13:       0.19433738
Pair 0 6, 1 14:       0.19999451
Pair 0 6, 1 15:      -1.56868091
Pair 0 6, 1 16:       0.05598477
Pair 0 6, 1 17:       0.00538056
Pair 0 9, 1 1:       0.11780584
Pair 0 9, 1 3:      -0.71087414
Pair 0 9, 1 4:      -0.53553252
Pair 0 9, 1 5:       0.23263823
Pair 0 9, 1 6:       0.08121100
Pair 0 9, 1 7:      95.04489067
Pair 0 9, 1 8:      -0.32200940
Pair 0 9, 1 9:      -2.58463273
Pair 0 9, 1 10:       0.04393810
Pair 0 9, 1 12:       0.08995224
Pair 0 9, 1 13:       0.12767497
Pair 0 9, 1 14:       0.11865188
Pair 0 9, 1 15:      21.63420461
Pair 0 9, 1 16:       0.43138670
Pair 0 9, 1 17:      -3.48820229
Pair 0 10, 1 1:      -0.07947371
Pair 0 10, 1 3:       0.17888450
Pair 0 10, 1 4:      -0.45597692
Pair 0 10, 1 5:       0.18351814
Pair 0 10, 1 6:      -0.09510612
Pair 0 10, 1 7:    2394.36006640
Pair 0 10, 1 8:      -1.21218309
Pair 0 10, 1 9:      -1.68651729
Pair 0 10, 1 10:      -0.21464713
Pair 0 10, 1 12:      -0.02392276
Pair 0 10, 1 13:      -0.09491341
Pair 0 10, 1 14:      -0.10786872
Pair 0 10, 1 15:     262.18529841
Pair 0 10, 1 16:      -1.40634761
Pair 0 10, 1 17:      -2.49436946
Pair 0 11, 1 1:       0.18260135
Pair 0 11, 1 3:      -0.25117435
Pair 0 11, 1 4:       0.01889071
Pair 0 11, 1 5:       0.11178778
Pair 0 11, 1 6:       0.14847058
Pair 0 11, 1 7:       3.59247856
Pair 0 11, 1 8:       0.10063030
Pair 0 11, 1 9:       0.10493758
Pair 0 11, 1 10:       0.17376735
Pair 0 11, 1 12:       0.19535438
Pair 0 11, 1 13:       0.18113621
Pair 0 11, 1 14:       0.19358527
Pair 0 11, 1 15:      -1.58132125
Pair 0 11, 1 16:       0.19794442
Pair 0 11, 1 17:      -0.05892836
Pair 0 12, 1 1:       0.18901519
Pair 0 12, 1 3:      -0.38062396
Pair 0 12, 1 4:       0.04385630
Pair 0 12, 1 5:       0.03343892
Pair 0 12, 1 6:       0.14668071
Pair 0 12, 1 7:       2.80469853
Pair 0 12, 1 8:       0.09390897
Pair 0 12, 1 9:       0.06625005
Pair 0 12, 1 10:       0.10597398
Pair 0 12, 1 12:       0.18079521
Pair 0 12, 1 13:       0.18169489
Pair 0 12, 1 14:       0.17973203
Pair 0 12, 1 15:      -2.03507523
Pair 0 12, 1 16:       0.01885072
Pair 0 12, 1 17:      -0.04433572
Pair 0 13, 1 1:       0.15812446
Pair 0 13, 1 3:      -0.27380728
Pair 0 13, 1 4:       0.01827088
Pair 0 13, 1 5:       0.03099336
Pair 0 13, 1 6:       0.13532907
Pair 0 13, 1 7:       3.06789269
Pair 0 13, 1 8:       0.05381784
Pair 0 13, 1 9:       0.01327649
Pair 0 13, 1 10:       0.09573820
Pair 0 13, 1 12:       0.15401027
Pair 0 13, 1 13:       0.15073036
Pair 0 13, 1 14:       0.14924266
Pair 0 13, 1 15:      -2.68025021
Pair 0 13, 1 16:      -0.08606043
Pair 0 13, 1 17:      -0.10803929
Pair 0 14, 1 1:       0.08868657
Pair 0 14, 1 3:      -0.23147533
Pair 0 14, 1 4:       0.22559653
Pair 0 14, 1 5:      -0.34379656
Pair 0 14, 1 6:       0.10117237
Pair 0 14, 1 7:     137.15699046
Pair 0 14, 1 8:      -2.40588961
Pair 0 14, 1 9:      -0.55123077
Pair 0 14, 1 10:       0.03223874
Pair 0 14, 1 12:       0.10643576
Pair 0 14, 1 13:       0.06591868
Pair 0 14, 1 14:       0.15554062
Pair 0 14, 1 15:      32.90581217
Pair 0 14, 1 16:      -2.92522690
Pair 0 14, 1 17:      -0.17487837
Pair 0 15, 1 1:       0.23596780
Pair 0 15, 1 3:      -0.76052147
Pair 0 15, 1 4:       0.22978787
Pair 0 15, 1 5:      -0.08028611
Pair 0 15, 1 6:       0.25763846
Pair 0 15, 1 7:   16176.76589989
Pair 0 15, 1 8:      -0.12729042
Pair 0 15, 1 9:       0.62858373
Pair 0 15, 1 10:       0.23701710
Pair 0 15, 1 12:       0.09325813
Pair 0 15, 1 13:       0.25102660
Pair 0 15, 1 14:       0.33945559
Pair 0 15, 1 15:    7170.29899729
Pair 0 15, 1 16:       0.48237646
Pair 0 15, 1 17:       1.61004899
Pair 0 16, 1 1:       0.20383388
Pair 0 16, 1 3:      -0.17200990
Pair 0 16, 1 4:       0.06314029
Pair 0 16, 1 5:       0.06635457
Pair 0 16, 1 6:       0.14914124
Pair 0 16, 1 7:       3.39231991
Pair 0 16, 1 8:       0.12894186
Pair 0 16, 1 9:       0.08487019
Pair 0 16, 1 10:       0.15749645
Pair 0 16, 1 12:       0.18773517
Pair 0 16, 1 13:       0.19433738
Pair 0 16, 1 14:       0.19999451
Pair 0 16, 1 15:      -1.56868091
Pair 0 16, 1 16:       0.05598477
Pair 0 16, 1 17:       0.00538056
Pair 0 19, 1 1:       0.11780584
Pair 0 19, 1 3:      -0.71087414
Pair 0 19, 1 4:      -0.53553252
Pair 0 19, 1 5:       0.23263823
Pair 0 19, 1 6:       0.08121100
Pair 0 19, 1 7:      95.04489067
Pair 0 19, 1 8:      -0.32200940
Pair 0 19, 1 9:      -2.58463273
Pair 0 19, 1 10:       0.04393810
Pair 0 19, 1 12:       0.08995224
Pair 0 19, 1 13:       0.12767497
Pair 0 19, 1 14:       0.11865188
Pair 0 19, 1 15:      21.63420461
Pair 0 19, 1 16:       0.43138670
Pair 0 19, 1 17:      -3.48820229
Pair 0 20, 1 1:      -0.07947371
Pair 0 20, 1 3:       0.17888450
Pair 0 20, 1 4:      -0.45597692
Pair 0 20, 1 5:       0.18351814
Pair 0 20, 1 6:      -0.09510612
Pair 0 20, 1 7:    2394.36006640
Pair 0 20, 1 8:      -1.21218309
Pair 0 20, 1 9:      -1.68651729
Pair 0 20, 1 10:      -0.21464713
Pair 0 20, 1 12:      -0.02392276
Pair 0 20, 1 13:      -0.09491341
Pair 0 20, 1 14:      -0.10786872
Pair 0 20, 1 15:     262.18529841
Pair 0 20, 1 16:      -1.40634761
Pair 0 20, 1 17:      -2.49436946
Pair 0 21, 1 1:       0.18260135
Pair 0 21, 1 3:      -0.25117435
Pair 0 21, 1 4:       0.01889071
Pair 0 21, 1 5:       0.11178778
Pair 0 21, 1 6:       0.14847058
Pair 0 21, 1 7:       3.59247856
Pair 0 21, 1 8:       0.10063030
Pair 0 21, 1 9:       0.10493758
Pair 0 21, 1 10:       0.17376735
Pair 0 21, 1 12:       0.19535438
Pair 0 21, 1 13:       0.18113621
Pair 0 21, 1 14:       0.19358527
Pair 0 21, 1 15:      -1.58132125
Pair 0 21, 1 16:       0.19794442
Pair 0 21, 1 17:      -0.05892836
Pair 1 1, 2 1:      -0.29239524
Pair 1 1, 2 2:       0.04172469
Pair 1 1, 2 11:       0.27774103
Pair 1 1, 2 12:      -0.41338522
Pair 1 1, 2 13:      -0.19927202
Pair 1 1, 2 14:      -0.04583987
Pair 1 1, 2 15:      -0.07687916
Pair 1 1, 2 16:      50.05293634
Pair 1 1, 2 17:      25.25433874
Pair 1 1, 2 18:     281.65707965
Pair 1 1, 2 19:      -0.80382427
Pair 1 1, 2 20:      -0.02622670
Pair 1 1, 2 21:       0.01855748
Pair 1 1, 2 22:      -0.39634182
Pair 1 1, 2 23:      -0.09840428
Pair 1 1, 2 24:     167.40848385
Pair 1 1, 2 25:      18.56931977
Pair 1 1, 2 26:     222.98607272
Pair 1 3, 2 1:       0.31632608
Pair 1 3, 2 2:       0.00999244
Pair 1 3, 2 11:       0.50962433
Pair 1 3, 2 12:      -0.01231291
Pair 1 3, 2 13:       0.34392263
Pair 1 3, 2 14:       0.29419136
Pair 1 3, 2 15:       0.32030473
Pair 1 3, 2 16:      -0.97949422
Pair 1 3, 2 17:      -0.50292017
Pair 1 3, 2 18:       0.24787362
Pair 1 3, 2 19:      -0.44394387
Pair 1 3, 2 20:       0.23552348
Pair 1 3, 2 21:      -0.00660919
Pair 1 3, 2 22:       0.06524116
Pair 1 3, 2 23:       0.01049624
Pair 1 3, 2 24:       0.10132707
Pair 1 3, 2 25:      -0.20175958
Pair 1 3, 2 26:      -0.46456156
Pair 1 4, 2 1:       0.15580449
Pair 1 4, 2 2:      -0.19024322
Pair 1 4, 2 11:       0.29882292
Pair 1 4, 2 12:      -0.12814194
Pair 1 4, 2 13:       0.11594315
Pair 1 4, 2 14:       0.04670543
Pair 1 4, 2 15:       0.20727115
Pair 1 4, 2 16:      10.35656770
Pair 1 4, 2 17:      36.36027896
Pair 1 4, 2 18:      58.38893775
Pair 1 4, 2 19:      -0.63724946
Pair 1 4, 2 20:       0.02653287
Pair 1 4, 2 21:      -0.11862224
Pair 1 4, 2 22:      -0.05737814
Pair 1 4, 2 23:      -0.19599964
Pair 1 4, 2 24:       9.64058291
Pair 1 4, 2 25:      59.62790696
Pair 1 4, 2 26:      52.71813315
Pair 1 5, 2 1:       0.15479873
Pair 1 5, 2 2:      -0.12418891
Pair 1 5, 2 11:       0.49897042
Pair 1 5, 2 12:      -0.04092490
Pair 1 5, 2 13:       0.21301479
Pair 1 5, 2 14:       0.09339621
Pair 1 5, 2 15:       0.17374642
Pair 1 5, 2 16:      50.43254614
Pair 1 5, 2 17:      32.28038285
Pair 1 5, 2 18:     325.24569207
Pair 1 5, 2 19:      -0.87103736
Pair 1 5, 2 20:       0.00982219
Pair 1 5, 2 21:      -0.12637153
Pair 1 5, 2 22:      -0.04805775
Pair 1 5, 2 23:      -0.10921883
Pair 1 5, 2 24:     262.37607654
Pair 1 5, 2 25:      22.81703011
Pair 1 5, 2 26:     235.91343603
Pair 1 6, 2 1:       1.42213445
Pair 1 6, 2 2:       0.92743548
Pair 1 6, 2 11:      -0.08578673
Pair 1 6, 2 12:       1.09973018
Pair 1 6, 2 13:       2.77677122
Pair 1 6, 2 14:       2.37593054
Pair 1 6, 2 15:       2.40262134
Pair 1 6, 2 16:    3235.90894008
Pair 1 6, 2 17:     170.72084940
Pair 1 6, 2 18:   24711.38125582
Pair 1 6, 2 19:      -2.06329289
Pair 1 6, 2 20:       0.28508349
Pair 1 6, 2 21:       1.62960081
Pair 1 6, 2 22:       1.94302801
Pair 1 6, 2 23:       1.94190759
Pair 1 6, 2 24:    3751.43894412
Pair 1 6, 2 25:     167.70401469
Pair 1 6, 2 26:   31212.48141038
Pair 1 7, 2 1:       0.28674679
Pair 1 7, 2 2:      -0.01994085
Pair 1 7, 2 11:       0.32867787
Pair 1 7, 2 12:       0.12979819
Pair 1 7, 2 13:       0.24894893
Pair 1 7, 2 14:       0.19404345
Pair 1 7, 2 15:       0.26631725
Pair 1 7, 2 16:      -1.13392314
Pair 1 7, 2 17:      -0.72137088
Pair 1 7, 2 18:       0.14235936
Pair 1 7, 2 19:      -0.21908066
Pair 1 7, 2 20:       0.15724286
Pair 1 7, 2 21:       0.01470224
Pair 1 7, 2 22:       0.12459154
Pair 1 7, 2 23:      -0.00211508
Pair 1 7, 2 24:       0.27812529
Pair 1 7, 2 25:      -0.03480869
Pair 1 7, 2 26:       0.10458373
Pair 1 8, 2 1:       0.21664362
Pair 1 8, 2 2:      -0.02487907
Pair 1 8, 2 11:       0.25973609
Pair 1 8, 2 12:       0.12357052
Pair 1 8, 2 13:       0.07384752
Pair 1 8, 2 14:       0.14464941
Pair 1 8, 2 15:       0.22551821
Pair 1 8, 2 16:      -0.72297220
Pair 1 8, 2 17:      -1.10152790
Pair 1 8, 2 18:      -0.30959104
Pair 1 8, 2 19:      -0.15667067
Pair 1 8, 2 20:      -0.04354504
Pair 1 8, 2 21:       0.08192081
Pair 1 8, 2 22:       0.06471288
Pair 1 8, 2 23:      -0.05954483
Pair 1 8, 2 24:      -0.73280729
Pair 1 8, 2 25:       0.02195301
Pair 1 8, 2 26:      -0.30612307
Pair 1 9, 2 1:      -0.02289359
Pair 1 9, 2 2:       0.11291564
Pair 1 9, 2 11:       0.18718989
Pair 1 9, 2 12:      -0.10219917
Pair 1 9, 2 13:       0.16075306
Pair 1 9, 2 14:       0.10251631
Pair 1 9, 2 15:       0.02064495
Pair 1 9, 2 16:      -0.48592841
Pair 1 9, 2 17:       0.80126173
Pair 1 9, 2 18:       0.24975311
Pair 1 9, 2 19:      -0.16596302
Pair 1 9, 2 20:       0.19829569
Pair 1 9, 2 21:      -0.00055499
Pair 1 9, 2 22:      -0.05884570
Pair 1 9, 2 23:       0.10931902
Pair 1 9, 2 24:      -0.80295668
Pair 1 9, 2 25:      -2.10636521
Pair 1 9, 2 26:      -1.23932927
Pair 1 10, 2 1:       0.33005224
Pair 1 10, 2 2:      -0.02863560
Pair 1 10, 2 11:       0.64024606
Pair 1 10, 2 12:       0.11486756
Pair 1 10, 2 13:       0.30697193
Pair 1 10, 2 14:       0.25862639
Pair 1 10, 2 15:       0.32617832
Pair 1 10, 2 16:      -0.94796640
Pair 1 10, 2 17:      -0.66056705
Pair 1 10, 2 18:      -0.23746926
Pair 1 10, 2 19:      -0.66442365
Pair 1 10, 2 20:       0.13258434
Pair 1 10, 2 21:       0.00251697
Pair 1 10, 2 22:       0.08665480
Pair 1 10, 2 23:      -0.02722352
Pair 1 10, 2 24:      -0.50812560
Pair 1 10, 2 25:      -0.34771166
Pair 1 10, 2 26:      -1.12695447
Pair 1 12, 2 1:      -0.40163611
Pair 1 12, 2 2:       0.15795872
Pair 1 12, 2 11:       0.18243980
Pair 1 12, 2 12:      -0.33795406
Pair 1 12, 2 13:       0.12183627
Pair 1 12, 2 14:      -0.03269609
Pair 1 12, 2 15:      -0.24801288
Pair 1 12, 2 16:       2.60688815
Pair 1 12, 2 17:      16.78972038
Pair 1 12, 2 18:      47.17984912
Pair 1 12, 2 19:      -0.67364560
Pair 1 12, 2 20:       0.07314207
Pair 1 12, 2 21:      -0.12184376
Pair 1 12, 2 22:      -0.35699256
Pair 1 12, 2 23:       0.14431611
Pair 1 12, 2 24:       2.75624595
Pair 1 12, 2 25:      14.86035814
Pair 1 12, 2 26:      39.49002741
Pair 1 13, 2 1:      -0.17423386
Pair 1 13, 2 2:       0.05407025
Pair 1 13, 2 11:       0.36475466
Pair 1 13, 2 12:      -0.31912945
Pair 1 13, 2 13:      -0.06616779
Pair 1 13, 2 14:       0.05746813
Pair 1 13, 2 15:       0.03178190
Pair 1 13, 2 16:      32.54296614
Pair 1 13, 2 17:      16.46716966
Pair 1 13, 2 18:     180.33270012
Pair 1 13, 2 19:      -0.78818000
Pair 1 13, 2 20:       0.05928425
Pair 1 13, 2 21:       0.02313683
Pair 1 13, 2 22:      -0.33374135
Pair 1 13, 2 23:      -0.07043806
Pair 1 13, 2 24:      90.54291082
Pair 1 13, 2 25:      10.83210962
Pair 1 13, 2 26:     143.96922622
Pair 1 14, 2 1:      -1.01391666
Pair 1 14, 2 2:      -0.10234860
Pair 1 14, 2 11:       0.35237705
Pair 1 14, 2 12:      -1.98065970
Pair 1 14, 2 13:      -0.78486582
Pair 1 14, 2 14:      -0.77656650
Pair 1 14, 2 15:      -0.95018842
Pair 1 14, 2 16:     440.61334022
Pair 1 14, 2 17:      56.80952803
Pair 1 14, 2 18:    4026.57756067
Pair 1 14, 2 19:      -2.62622967
Pair 1 14, 2 20:       0.01679162
Pair 1 14, 2 21:      -0.40567093
Pair 1 14, 2 22:      -0.75563154
Pair 1 14, 2 23:      -0.22355688
Pair 1 14, 2 24:     448.73939086
Pair 1 14, 2 25:      56.66215623
Pair 1 14, 2 26:    3355.61172099
Pair 1 15, 2 1:       0.31752943
Pair 1 15, 2 2:       0.00575470
Pair 1 15, 2 11:       0.42417663
Pair 1 15, 2 12:       0.08335873
Pair 1 15, 2 13:       0.31238717
Pair 1 15, 2 14:       0.26398053
Pair 1 15, 2 15:       0.31179637
Pair 1 15, 2 16:      -1.07558234
Pair 1 15, 2 17:      -0.63174954
Pair 1 15, 2 18:       0.28639701
Pair 1 15, 2 19:      -0.21171783
Pair 1 15, 2 20:       0.27186972
Pair 1 15, 2 21:       0.01329801
Pair 1 15, 2 22:       0.10325440
Pair 1 15, 2 23:       0.01344865
Pair 1 15, 2 24:       0.26836079
Pair 1 15, 2 25:      -0.07337718
Pair 1 15, 2 26:      -0.02097307
Pair 1 16, 2 1:       0.32678323
Pair 1 16, 2 2:      -0.00223802
Pair 1 16, 2 11:       0.39757483
Pair 1 16, 2 12:       0.05085459
Pair 1 16, 2 13:       0.35728789
Pair 1 16, 2 14:       0.26358535
Pair 1 16, 2 15:       0.30982934
Pair 1 16, 2 16:      -1.36322917
Pair 1 16, 2 17:      -0.65704702
Pair 1 16, 2 18:      -0.28314919
Pair 1 16, 2 19:      -0.21231318
Pair 1 16, 2 20:       0.25567827
Pair 1 16, 2 21:      -0.01834091
Pair 1 16, 2 22:       0.10812926
Pair 1 16, 2 23:       0.01868416
Pair 1 16, 2 24:      -0.01891476
Pair 1 16, 2 25:      -0.18212034
Pair 1 16, 2 26:      -0.47881278
Pair 1 17, 2 1:       0.33850659
Pair 1 17, 2 2:      -0.02724848
Pair 1 17, 2 11:       0.41001244
Pair 1 17, 2 12:       0.08605128
Pair 1 17, 2 13:       0.27403281
Pair 1 17, 2 14:       0.23689316
Pair 1 17, 2 15:       0.33827768
Pair 1 17, 2 16:      -0.72103536
Pair 1 17, 2 17:      -0.58769995
Pair 1 17, 2 18:      -0.43515673
Pair 1 17, 2 19:      -0.21017353
Pair 1 17, 2 20:       0.23563602
Pair 1 17, 2 21:       0.02438085
Pair 1 17, 2 22:       0.11508742
Pair 1 17, 2 23:      -0.02828168
Pair 1 17, 2 24:      -0.33082966
Pair 1 17, 2 25:      -0.39741542
Pair 1 17, 2 26:      -0.57718210
Pair 2 1, 3 1:      -0.95401714
Pair 2 1, 3 2:      -2.58445835
Pair 2 1, 3 3:      -1.42314366
Pair 2 1, 3 4:      -1.44158551
Pair 2 1, 3 5:      -1.61840040
Pair 2 1, 3 6:      -1.30119721
Pair 2 1, 3 7:      -1.02756172
Pair 2 1, 3 8:      -1.19517664
Pair 2 1, 3 9:      -1.14022094
Pair 2 1, 3 10:      -1.07961944
Pair 2 1, 3 11:      -1.25678511
Pair 2 1, 3 12:      -1.05362714
Pair 2 1, 3 13:      -1.02614667
Pair 2 1, 3 14:      -1.11997922
Pair 2 1, 3 15:      -1.67948861
Pair 2 1, 3 16:      -2.05866386
Pair 2 1, 3 17:    2588.20851020
Pair 2 1, 3 19:      24.61296910
Pair 2 1, 3 20:     817.88437504
Pair 2 1, 3 21:     123.69118473
Pair 2 1, 3 22:     142.16291029
Pair 2 1, 3 23:      24.45417687
Pair 2 1, 3 24:      76.54091993
Pair 2 1, 3 25:     480.44904432
Pair 2 1, 3 26:     418.76765500
Pair 2 1, 3 27:    4310.39549427
Pair 2 1, 3 28:      25.15627978
Pair 2 2, 3 1:      -0.29739295
Pair 2 2, 3 2:       1.09617272
Pair 2 2, 3 3:      -0.37292102
Pair 2 2, 3 4:      -0.26283429
Pair 2 2, 3 5:      -0.77439886
Pair 2 2, 3 6:      -0.49999700
Pair 2 2, 3 7:      -0.06988720
Pair 2 2, 3 8:       0.12456893
Pair 2 2, 3 9:      -0.16388439
Pair 2 2, 3 10:      -0.15164665
Pair 2 2, 3 11:       0.08212285
Pair 2 2, 3 12:      -0.14454955
Pair 2 2, 3 13:      -0.21135284
Pair 2 2, 3 14:       0.00106891
Pair 2 2, 3 15:      -0.25964622
Pair 2 2, 3 16:       0.18855350
Pair 2 2, 3 17:    3112.76042084
Pair 2 2, 3 19:      80.91205391
Pair 2 2, 3 20:    1027.76604638
Pair 2 2, 3 21:     237.02223146
Pair 2 2, 3 22:     270.52447941
Pair 2 2, 3 23:      75.36792590
Pair 2 2, 3 24:     131.34578396
Pair 2 2, 3 25:     526.39916304
Pair 2 2, 3 26:     465.45664955
Pair 2 2, 3 27:    4411.60275433
Pair 2 2, 3 28:      68.01137256
Pair 2 11, 3 1:       0.04796816
Pair 2 11, 3 2:      -0.08488486
Pair 2 11, 3 3:      -0.19837145
Pair 2 11, 3 4:      -0.22731463
Pair 2 11, 3 5:      -0.04506500
Pair 2 11, 3 6:      -0.06354738
Pair 2 11, 3 7:       0.06808357
Pair 2 11, 3 8:       0.04402876
Pair 2 11, 3 9:       0.03906572
Pair 2 11, 3 10:      -0.01817710
Pair 2 11, 3 11:       0.02124037
Pair 2 11, 3 12:       0.01446700
Pair 2 11, 3 13:       0.04339698
Pair 2 11, 3 14:       0.10687862
Pair 2 11, 3 15:       0.13744613
Pair 2 11, 3 16:       0.11793279
Pair 2 11, 3 17:      -0.34258662
Pair 2 11, 3 19:      -0.13395298
Pair 2 11, 3 20:      -1.35422721
Pair 2 11, 3 21:      -0.08243609
Pair 2 11, 3 22:      -0.12155656
Pair 2 11, 3 23:      -0.40371156
Pair 2 11, 3 24:       0.12076058
Pair 2 11, 3 25:      -0.18531245
Pair 2 11, 3 26:      -0.02245165
Pair 2 11, 3 27:      -0.25698194
Pair 2 11, 3 28:      -0.07765409
Pair 2 12, 3 1:       0.25390071
Pair 2 12, 3 2:       0.04194943
Pair 2 12, 3 3:       0.04206404
Pair 2 12, 3 4:       0.25428549
Pair 2 12, 3 5:      -0.48850998
Pair 2 12, 3 6:       0.17457268
Pair 2 12, 3 7:       0.21953900
Pair 2 12, 3 8:       0.26942867
Pair 2 12, 3 9:       0.27392875
Pair 2 12, 3 10:       0.19027606
Pair 2 12, 3 11:       0.37716204
Pair 2 12, 3 12:       0.18711896
Pair 2 12, 3 13:       0.25397508
Pair 2 12, 3 14:       0.28982220
Pair 2 12, 3 15:       0.25919225
Pair 2 12, 3 16:       0.41294781
Pair 2 12, 3 17:      -0.22830495
Pair 2 12, 3 19:       0.18103008
Pair 2 12, 3 20:      -1.48251185
Pair 2 12, 3 21:       0.04617317
Pair 2 12, 3 22:       0.19742291
Pair 2 12, 3 23:       0.08493637
Pair 2 12, 3 24:       0.18410615
Pair 2 12, 3 25:      -0.13092061
Pair 2 12, 3 26:       0.21920376
Pair 2 12, 3 27:       0.05379470
Pair 2 12, 3 28:       0.16377858
Pair 2 13, 3 1:      -0.75982597
Pair 2 13, 3 2:      -1.35627016
Pair 2 13, 3 3:      -0.59827758
Pair 2 13, 3 4:      -0.62109580
Pair 2 13, 3 5:      -1.07853699
Pair 2 13, 3 6:      -0.90960959
Pair 2 13, 3 7:      -0.79831063
Pair 2 13, 3 8:      -0.73253900
Pair 2 13, 3 9:      -0.74863574
Pair 2 13, 3 10:      -0.54195856
Pair 2 13, 3 11:      -0.59690368
Pair 2 13, 3 12:      -0.50137407
Pair 2 13, 3 13:      -0.74944488
Pair 2 13, 3 14:      -0.72628988
Pair 2 13, 3 15:      -1.30603597
Pair 2 13, 3 16:      -1.37090199
Pair 2 13, 3 17:    3289.52062148
Pair 2 13, 3 19:       4.68829616
Pair 2 13, 3 20:   16435.45059662
Pair 2 13, 3 21:     778.35514098
Pair 2 13, 3 22:     757.48730789
Pair 2 13, 3 23:       2.80268148
Pair 2 13, 3 24:       4.44815939
Pair 2 13, 3 25:     685.40259161
Pair 2 13, 3 26:     517.75713566
Pair 2 13, 3 27:   11502.81349098
Pair 2 13, 3 28:       5.43129475
Pair 2 14, 3 1:       0.45598053
Pair 2 14, 3 2:       3.07979849
Pair 2 14, 3 3:       0.17447317
Pair 2 14, 3 4:       0.41239303
Pair 2 14, 3 5:      -0.24694452
Pair 2 14, 3 6:       0.31784219
Pair 2 14, 3 7:       0.28242899
Pair 2 14, 3 8:       0.41381158
Pair 2 14, 3 9:       0.66234077
Pair 2 14, 3 10:       0.37985216
Pair 2 14, 3 11:       0.60644791
Pair 2 14, 3 12:       0.36730135
Pair 2 14, 3 13:       0.59046864
Pair 2 14, 3 14:       0.44834195
Pair 2 14, 3 15:       0.53655642
Pair 2 14, 3 16:       0.74477394
Pair 2 14, 3 17:    4247.79021704
Pair 2 14, 3 19:     125.57857263
Pair 2 14, 3 20:              NaN
Pair 2 14, 3 21:     329.56445113
Pair 2 14, 3 22:     369.23236292
Pair 2 14, 3 23:     115.88546999
Pair 2 14, 3 24:     161.14544963
Pair 2 14, 3 25:     268.24290353
Pair 2 14, 3 26:     231.16509236
Pair 2 14, 3 27:    1437.44552213
Pair 2 14, 3 28:      96.53482711
Pair 2 15, 3 1:      -0.62497234
Pair 2 15, 3 2:      -2.35043837
Pair 2 15, 3 3:      -0.99796377
Pair 2 15, 3 4:      -0.93181748
Pair 2 15, 3 5:      -1.16942838
Pair 2 15, 3 6:      -0.77179869
Pair 2 15, 3 7:      -0.84211519
Pair 2 15, 3 8:      -1.02143046
Pair 2 15, 3 9:      -0.74982563
Pair 2 15, 3 10:      -0.90287755
Pair 2 15, 3 11:      -0.96900581
Pair 2 15, 3 12:      -0.92189423
Pair 2 15, 3 13:      -0.67893843
Pair 2 15, 3 14:      -0.87427911
Pair 2 15, 3 15:      -1.58496386
Pair 2 15, 3 16:      -1.90548978
Pair 2 15, 3 17:    4105.10373228
Pair 2 15, 3 19:       5.54498755
Pair 2 15, 3 20:    3671.84085692
Pair 2 15, 3 21:     333.26558707
Pair 2 15, 3 22:     414.46689995
Pair 2 15, 3 23:       4.33176359
Pair 2 15, 3 24:      41.18911019
Pair 2 15, 3 25:     490.27316474
Pair 2 15, 3 26:     473.27616253
Pair 2 15, 3 27:   25336.60671598
Pair 2 15, 3 28:       5.13791069
Pair 2 16, 3 1:       0.23026708
Pair 2 16, 3 2:       0.26903974
Pair 2 16, 3 3:       0.16084108
Pair 2 16, 3 4:       0.27157431
Pair 2 16, 3 5:       0.09541363
Pair 2 16, 3 6:       0.19661923
Pair 2 16, 3 7:       0.22652060
Pair 2 16, 3 8:       0.22133034
Pair 2 16, 3 9:       0.21685670
Pair 2 16, 3 10:       0.19279007
Pair 2 16, 3 11:       0.30901861
Pair 2 16, 3 12:       0.18205744
Pair 2 16, 3 13:       0.22358999
Pair 2 16, 3 14:       0.27516278
Pair 2 16, 3 15:       0.26971502
Pair 2 16, 3 16:       0.37302701
Pair 2 16, 3 17:      -0.02473163
Pair 2 16, 3 19:       0.17180182
Pair 2 16, 3 20:      -1.16039321
Pair 2 16, 3 21:       0.10398907
Pair 2 16, 3 22:       0.25921721
Pair 2 16, 3 23:       0.23440574
Pair 2 16, 3 24:      -0.21191947
Pair 2 16, 3 25:       0.02968420
Pair 2 16, 3 26:       0.33498461
Pair 2 16, 3 27:      -0.14142459
Pair 2 16, 3 28:       0.17888702
Pair 2 17, 3 1:       0.17507115
Pair 2 17, 3 2:       0.27049013
Pair 2 17, 3 3:       0.19708425
Pair 2 17, 3 4:       0.30404145
Pair 2 17, 3 5:      -0.04780964
Pair 2 17, 3 6:       0.13070051
Pair 2 17, 3 7:       0.17239157
Pair 2 17, 3 8:       0.22773143
Pair 2 17, 3 9:       0.19677893
Pair 2 17, 3 10:       0.21222061
Pair 2 17, 3 11:       0.31581195
Pair 2 17, 3 12:       0.20038234
Pair 2 17, 3 13:       0.17652910
Pair 2 17, 3 14:       0.21560255
Pair 2 17, 3 15:       0.16260880
Pair 2 17, 3 16:       0.31180660
Pair 2 17, 3 17:      -0.30208257
Pair 2 17, 3 19:       0.08893376
Pair 2 17, 3 20:      -0.69362509
Pair 2 17, 3 21:      -0.10714006
Pair 2 17, 3 22:       0.16322196
Pair 2 17, 3 23:       0.30427092
Pair 2 17, 3 24:      -0.51995935
Pair 2 17, 3 25:      -0.27587999
Pair 2 17, 3 26:       0.05436202
Pair 2 17, 3 27:      -0.14334955
Pair 2 17, 3 28:       0.16396732
Pair 2 18, 3 1:       0.19255565
Pair 2 18, 3 2:       0.16169390
Pair 2 18, 3 3:       0.13709449
Pair 2 18, 3 4:       0.24981729
Pair 2 18, 3 5:       0.03635305
Pair 2 18, 3 6:       0.16705519
Pair 2 18, 3 7:       0.13712389
Pair 2 18, 3 8:       0.16871251
Pair 2 18, 3 9:       0.19188737
Pair 2 18, 3 10:       0.15338100
Pair 2 18, 3 11:       0.25945130
Pair 2 18, 3 12:       0.14035927
Pair 2 18, 3 13:       0.18910672
Pair 2 18, 3 14:       0.18791929
Pair 2 18, 3 15:       0.14327370
Pair 2 18, 3 16:       0.25335647
Pair 2 18, 3 17:      -0.30003516
Pair 2 18, 3 19:       0.14099944
Pair 2 18, 3 20:      -1.13438507