Self 0 0:     -43.26810840
Self 0 1:     -37.84075454
Self 0 2:     -32.23737213
Self 0 3:     -11.66308729
Self 0 4:     -30.44693820
Self 0 5:     -38.22029905
Self 0 6:     -35.20578872
Self 0 7:     -37.06641992
Self 1 0:       1.82577800
Self 1 1:      84.28866974
Self 1 2:      11.56063496
Self 1 3:      40.90359531
Self 1 4:      18.02843670
Self 1 5:       8.10995214
Self 2 0:      -1.23589800
Self 2 1:       6.85495598
Self 2 2:       7.04749779
Self 2 3:       4.43809265
Self 2 4:       5.00210779
Self 2 5:     394.27331614
Self 2 6:     394.67813234
Self 2 7:    7009.37151271
Self 2 8:    7008.90532999
Self 3 0:      11.52194929
Self 3 1:      18.23365409
Self 3 2:      16.01940220
Self 3 3:      15.47879523
Self 3 4:      15.27268683
Self 3 5:      17.47245517
Self 3 6:      15.64128666
Self 3 7:      17.34297629
Self 4 0:     -19.09785337
Self 4 1:     129.97345250
Self 4 2:    3151.82586744
Self 4 3:     -18.67060947
Self 4 4:     -24.71537232
Self 4 5:     -22.73604112
Self 4 6:       5.69420559
Self 4 7:     -21.39505195
Self 4 8:     -20.56605431
Self 4 9:     -19.26113724
Self 5 0:     -12.21595297
Self 5 1:    1259.59438348
Self 5 2:   67152.27216026
Self 5 3:     202.40766785
Self 5 4:     100.24799897
Self 5 5:   44264.52815618
Self 5 6:   32946.65630138
Self 5 7:   23502.35301158
Self 6 0:       5.16636740
Self 6 1:     132.55068231
Self 6 2:       9.38518906
Self 6 3:      12.07859592
Self 6 4:      12.66194321
Self 6 5:       8.53729290
Self 7 0:     -27.33013511
Self 7 1:     -11.54803108
Self 7 2:     -14.17775242
Self 7 3:      -9.91857159
Self 7 4:      50.51214041
Self 7 5:     -10.75813000
Self 7 6:     -17.70257443
Self 7 7:      -9.26455665
Self 7 8:      -9.08023951
Self 7 9:     -13.51389367
Self 7 10:      -7.19827324
Self 7 11:     -10.27069104
Self 7 12:      -7.04965087
Self 7 13:     -12.96832561
Self 7 14:      -5.89003997
Self 7 15:      -9.07968433
Self 7 16:      -1.18409570
Self 7 17:      28.99789526
Self 7 18:      -8.69784457
Self 7 19:     -12.60721362
Self 7 20:      -8.24737960
Self 7 21:     -10.76076014
Self 7 22:     -10.34465126
Self 7 23:     -20.03958942
Self 7 24:     -10.22004570
Self 7 25:     -10.43598920
Self 7 26:     -14.02846280
Self 7 27:     -12.07313911
Self 8 0:      10.22483925
Self 8 1:     917.00947578
Self 8 2:     917.00947578
Self 8 3:      61.51438150
Self 8 4:      61.51438150
Self 8 5:      17.93746870
Self 9 0:      -5.48357381
Self 9 1:      21.91433778
Self 9 2:      13.56846857
Self 9 3:      15.26248368
Self 9 4:      15.58012095
Self 9 5:      22.08565335
Self 9 6:      14.56802564
Self 9 7:       0.42748735
Self 9 8:       4.47089809
Self 9 9:       5.75717599
Self 9 10:       4.42262795
Self 9 11:      -1.58470345
Self 9 12:       2.66557285
Self 9 13:       0.47717068
Self 9 14:      -1.81444709
Self 9 15:      -3.62109587
Self 9 16:      -4.47317891
Self 9 17:      -3.22541295
Self 9 18:      -3.84796061
Self 10 0:      -4.71863905
Self 10 1:       9.75203756
Self 10 2:       5.98906870
Self 10 3:       3.95317515
Self 10 4:       2.67894658
Self 10 5:      16.73440189
Self 10 6:       6.49677672
Self 10 7:      -0.04973969
Self 10 8:      -1.37762023
Self 10 9:      -0.43422400
Self 10 10:       2.02499117
Self 10 11:      -1.03419449
Self 10 12:       2.15121338
Self 10 13:      28.76033649
Self 10 14:      28.72268041
Self 10 15:      21.75320704
Self 10 16:      20.18630493
Self 10 17:      82.42486457
Self 10 18:      28.82949594
Self 11 0:     -53.91898014
Self 11 1:     -49.04176334
Self 11 2:     -38.26231130
Self 11 3:      -8.19280993
Self 11 4:     -44.49212658
Self 11 5:     -60.69780426
Self 11 6:     -34.80342227
Self 11 7:       1.91111871
Self 11 8:      36.83858052
Self 11 9:      35.78862688
Self 11 10:    6279.61738795
Self 11 11:      42.17082968
Self 11 12:      29.07596356
Self 11 13:     -14.68143635
Self 11 14:     -13.51149626
Self 11 15:      -8.34292343
Self 11 16:     -10.34725312
Self 11 17:      -0.41240656
Self 11 18:      -8.00414778
Self 11 19:     -10.46412768
Self 11 20:      -7.40682285
Self 11 21:     -25.68529733
Self 11 22:     -28.46349521
Self 11 23:     -23.81343506
Self 11 24:     -39.96241809
Self 11 25:     -32.47372526
Self 11 26:     -30.09823425
Self 11 27:     -34.03920949
Self 11 28:     -39.36165499
Self 11 29:     -38.50157219
Self 11 30:     -33.52114559
Self 11 31:     -33.69544618
Self 11 32:     183.39969780
Self 11 33:     -29.93440875
Self 11 34:     -27.33698912
Self 12 0:      -0.48734010
Self 12 1:       6.12680083
Self 12 2:       2.78549141
Self 12 3:       3.75633367
Self 12 4:       3.81022889
Self 12 5:       5.37893465
Self 12 6:       4.37635131
Self 12 7:       5.56416627
Self 12 8:       5.58586222
Self 12 9:       5.77551280
Self 12 10:       5.09742341
Self 12 11:       3.63059420
Self 12 12:       5.04879484
Self 12 13:       6.17557174
Self 12 14:       3.45766446
Self 12 15:       0.94296614
Self 12 16:       0.34191156
Self 12 17:       1.90232953
Self 12 18:       1.04052545
Pair 0 0, 1 0:      -0.15719459
Pair 0 0, 1 1:      -0.14947145
Pair 0 0, 1 2:      -0.07100487
Pair 0 0, 1 3:      -0.02337579
Pair 0 0, 1 4:      -0.48456586
Pair 0 0, 1 5:      -0.23020477
Pair 0 0, 2 0:      -0.01021698
Pair 0 0, 2 1:       0.30758754
Pair 0 0, 2 2:      -0.32633163
Pair 0 0, 2 3:       0.02714217
Pair 0 0, 2 4:      -0.02462810
Pair 0 0, 2 5:       0.02242448
Pair 0 0, 2 6:       0.15285047
Pair 0 0, 2 7:       0.20143147
Pair 0 0, 2 8:       0.12462952
Pair 0 0, 3 0:       0.09108764
Pair 0 0, 3 1:       0.09700103
Pair 0 0, 3 2:       0.10333669
Pair 0 0, 3 3:       0.09357653
Pair 0 0, 3 4:       0.09247116
Pair 0 0, 3 5:       0.06899076
Pair 0 0, 3 6:       0.09008044
Pair 0 0, 3 7:       0.09268304
Pair 0 0, 4 0:       0.07662402
Pair 0 0, 4 1:      -0.04917286
Pair 0 0, 4 2:      -0.38637126
Pair 0 0, 4 3:       0.08660831
Pair 0 0, 4 4:      -0.02695719
Pair 0 0, 4 5:       0.05434973
Pair 0 0, 4 6:       0.29615029
Pair 0 0, 4 7:       0.23019035
Pair 0 0, 4 8:       0.20376020
Pair 0 0, 4 9:      -0.04744164
Pair 0 0, 5 0:       0.06318220
Pair 0 0, 5 1:       0.06826498
Pair 0 0, 5 2:      -0.14796999
Pair 0 0, 5 3:       0.05896008
Pair 0 0, 5 4:       0.04676530
Pair 0 0, 5 5:      -0.31887890
Pair 0 0, 5 6:       0.04889397
Pair 0 0, 5 7:       0.04548242
Pair 0 0, 6 0:       0.10766734
Pair 0 0, 6 1:       0.11703003
Pair 0 0, 6 2:       0.09534427
Pair 0 0, 6 3:       0.09336528
Pair 0 0, 6 4:       0.10797306
Pair 0 0, 6 5:       0.10813759
Pair 0 0, 7 0:       1.43478551
Pair 0 0, 7 1:       1.89759138
Pair 0 0, 7 2:       1.68935816
Pair 0 0, 7 3:       1.88227120
Pair 0 0, 7 4:       1.89439349
Pair 0 0, 7 5:       1.66177192
Pair 0 0, 7 6:       1.29768516
Pair 0 0, 7 7:       1.28707593
Pair 0 0, 7 8:       1.35339204
Pair 0 0, 7 9:       1.46841572
Pair 0 0, 7 10:       1.59061865
Pair 0 0, 7 11:       1.38646629
Pair 0 0, 7 12:       1.44471111
Pair 0 0, 7 13:       1.37993459
Pair 0 0, 7 14:       1.57895304
Pair 0 0, 7 15:       1.47857955
Pair 0 0, 7 16:       1.56705660
Pair 0 0, 7 17:       1.54371007
Pair 0 0, 7 18:       1.61312412
Pair 0 0, 7 19:       1.79947662
Pair 0 0, 7 20:       1.75537219
Pair 0 0, 7 21:       1.62207338
Pair 0 0, 7 22:       1.87669746
Pair 0 0, 7 23:       1.91053107
Pair 0 0, 7 24:       1.58761971
Pair 0 0, 7 25:       1.46781997
Pair 0 0, 7 26:       1.57889919
Pair 0 0, 7 27:       1.40441835
Pair 0 0, 8 0:      -1.16846713
Pair 0 0, 8 1:      -1.12946647
Pair 0 0, 8 2:      -1.12946647
Pair 0 0, 8 3:      -0.93218073
Pair 0 0, 8 4:      -0.93218073
Pair 0 0, 8 5:      -1.11211973
Pair 0 0, 9 0:       0.05670859
Pair 0 0, 9 1:       0.05806938
Pair 0 0, 9 2:       0.04909102
Pair 0 0, 9 3:       0.04242199
Pair 0 0, 9 4:       0.04050335
Pair 0 0, 9 5:       0.05792351
Pair 0 0, 9 6:       0.04614581
Pair 0 0, 9 7:       0.06126977
Pair 0 0, 9 8:       0.05457142
Pair 0 0, 9 9:       0.05402284
Pair 0 0, 9 10:       0.06055454
Pair 0 0, 9 11:       0.06508652
Pair 0 0, 9 12:       0.06629669
Pair 0 0, 9 13:       0.05934103
Pair 0 0, 9 14:       0.06557920
Pair 0 0, 9 15:       0.06535465
Pair 0 0, 9 16:       0.05790285
Pair 0 0, 9 17:       0.05137305
Pair 0 0, 9 18:       0.05069766
Pair 0 0, 10 0:       0.07465116
Pair 0 0, 10 1:       0.06002445
Pair 0 0, 10 2:       0.04912022
Pair 0 0, 10 3:       0.05720099
Pair 0 0, 10 4:       0.07589986
Pair 0 0, 10 5:       0.07932276
Pair 0 0, 10 6:       0.08266019
Pair 0 0, 10 7:       0.04862654
Pair 0 0, 10 8:       0.06878559
Pair 0 0, 10 9:       0.08039115
Pair 0 0, 10 10:       0.07110046
Pair 0 0, 10 11:       0.04088680
Pair 0 0, 10 12:       0.05053846
Pair 0 0, 10 13:       0.03699598
Pair 0 0, 10 14:       0.03623471
Pair 0 0, 10 15:       0.04417819
Pair 0 0, 10 16:       0.05078776
Pair 0 0, 10 17:       0.04313470
Pair 0 0, 10 18:       0.04211429
Pair 0 0, 11 0:       0.77124171
Pair 0 0, 11 1:       0.81319834
Pair 0 0, 11 2:       0.78458321
Pair 0 0, 11 3:       0.85423879
Pair 0 0, 11 4:       0.90669466
Pair 0 0, 11 5:       0.90139646
Pair 0 0, 11 6:       0.71115864
Pair 0 0, 11 7:       0.68777085
Pair 0 0, 11 8:       0.63534206
Pair 0 0, 11 9:       0.63646674
Pair 0 0, 11 10:       0.57766161
Pair 0 0, 11 11:       0.56878375
Pair 0 0, 11 12:       0.67838878
Pair 0 0, 11 13:       0.74706344
Pair 0 0, 11 14:       0.76688188
Pair 0 0, 11 15:       0.57985341
Pair 0 0, 11 16:       0.59879024
Pair 0 0, 11 17:       0.56090603
Pair 0 0, 11 18:       0.71430721
Pair 0 0, 11 19:       0.69126343
Pair 0 0, 11 20:       0.65189732
Pair 0 0, 11 21:       0.63940336
Pair 0 0, 11 22:       0.67138750
Pair 0 0, 11 23:       0.66437669
Pair 0 0, 11 24:       0.72059495
Pair 0 0, 11 25:       0.71141833
Pair 0 0, 11 26:       0.67597564
Pair 0 0, 11 27:       0.78002623
Pair 0 0, 11 28:       0.78237311
Pair 0 0, 11 29:       0.77176407
Pair 0 0, 11 30:       0.66708128
Pair 0 0, 11 31:       0.65356266
Pair 0 0, 11 32:       0.69048089
Pair 0 0, 11 33:       0.61531524
Pair 0 0, 11 34:       0.63843272
Pair 0 0, 12 0:      -0.06438777
Pair 0 0, 12 1:       0.02881866
Pair 0 0, 12 2:      -0.12013894
Pair 0 0, 12 3:      -0.00423994
Pair 0 0, 12 4:       0.15165830
Pair 0 0, 12 5:       0.15930646
Pair 0 0, 12 6:       0.18952994
Pair 0 0, 12 7:      -0.00027184
Pair 0 0, 12 8:       0.04153663
Pair 0 0, 12 9:       0.01820440
Pair 0 0, 12 10:      -0.06155735
Pair 0 0, 12 11:      -0.14859419
Pair 0 0, 12 12:      -0.18074287
Pair 0 0, 12 13:      -0.04950022
Pair 0 0, 12 14:      -0.07017233
Pair 0 0, 12 15:      -0.08473480
Pair 0 0, 12 16:      -0.05893907
Pair 0 0, 12 17:      -0.00872976
Pair 0 0, 12 18:      -0.00906164
Pair 0 1, 1 0:       0.46076924
Pair 0 1, 1 1:       0.24596808
Pair 0 1, 1 2:       0.14250311
Pair 0 1, 1 3:       0.16821601
Pair 0 1, 1 4:       4.76337663
Pair 0 1, 1 5:      -0.24730589
Pair 0 1, 2 0:      -0.01706645
Pair 0 1, 2 1:       0.22212565
Pair 0 1, 2 2:      -0.29071000
Pair 0 1, 2 3:       0.01728897
Pair 0 1, 2 4:      -0.02540209
Pair 0 1, 2 5:       0.02145955
Pair 0 1, 2 6:       0.07007567
Pair 0 1, 2 7:       0.27797123
Pair 0 1, 2 8:       0.18606119
Pair 0 1, 3 0:       0.09413560
Pair 0 1, 3 1:       0.08625371
Pair 0 1, 3 2:       0.08944719
Pair 0 1, 3 3:       0.08569361
Pair 0 1, 3 4:       0.08899097
Pair 0 1, 3 5:       0.08898724
Pair 0 1, 3 6:       0.09929639
Pair 0 1, 3 7:       0.09650889
Pair 0 1, 4 0:       0.06918054
Pair 0 1, 4 1:       0.07095349
Pair 0 1, 4 2:      -0.20090833
Pair 0 1, 4 3:       0.11960380
Pair 0 1, 4 4:       0.01508115
Pair 0 1, 4 5:       0.13300864
Pair 0 1, 4 6:       0.08568307
Pair 0 1, 4 7:       0.27607746
Pair 0 1, 4 8:       0.24079740
Pair 0 1, 4 9:      -0.06126031
Pair 0 1, 5 0:       0.06144854
Pair 0 1, 5 1:      -0.03189615
Pair 0 1, 5 2:      -0.02352656
Pair 0 1, 5 3:       0.06061039
Pair 0 1, 5 4:       0.05048044
Pair 0 1, 5 5:      -0.11870757
Pair 0 1, 5 6:       0.08068721
Pair 0 1, 5 7:       0.02484052
Pair 0 1, 6 0:       0.07042561
Pair 0 1, 6 1:       0.06610998
Pair 0 1, 6 2:       0.06612312
Pair 0 1, 6 3:       0.06434355
Pair 0 1, 6 4:       0.06775757
Pair 0 1, 6 5:       0.07050528
Pair 0 1, 7 0:       1.24579745
Pair 0 1, 7 1:       1.68551992
Pair 0 1, 7 2:       1.50088408
Pair 0 1, 7 3:       1.70028790
Pair 0 1, 7 4:       1.70200741
Pair 0 1, 7 5:       1.46557751
Pair 0 1, 7 6:       1.08211834
Pair 0 1, 7 7:       1.07398184
Pair 0 1, 7 8:       1.15483782
Pair 0 1, 7 9:       1.30505583
Pair 0 1, 7 10:       1.43114348
Pair 0 1, 7 11:       1.18251114
Pair 0 1, 7 12:       1.27442586
Pair 0 1, 7 13:       1.19996145
Pair 0 1, 7 14:       1.39330898
Pair 0 1, 7 15:       1.25742668
Pair 0 1, 7 16:       1.29340118
Pair 0 1, 7 17:       1.33662910
Pair 0 1, 7 18:       1.41993146
Pair 0 1, 7 19:       1.52941805
Pair 0 1, 7 20:       1.53676767
Pair 0 1, 7 21:       1.36745861
Pair 0 1, 7 22:       1.68121400
Pair 0 1, 7 23:       1.65619037
Pair 0 1, 7 24:       1.33729186
Pair 0 1, 7 25:       1.20697996
Pair 0 1, 7 26:       1.27884131
Pair 0 1, 7 27:       1.16558053
Pair 0 1, 8 0:      -0.99667956
Pair 0 1, 8 1:      -0.87462238
Pair 0 1, 8 2:      -0.87462238
Pair 0 1, 8 3:      -0.75673876
Pair 0 1, 8 4:      -0.75673876
Pair 0 1, 8 5:      -0.93811248
Pair 0 1, 9 0:       0.04497159
Pair 0 1, 9 1:       0.04267982
Pair 0 1, 9 2:       0.03927335
Pair 0 1, 9 3:       0.03519962
Pair 0 1, 9 4:       0.03332519
Pair 0 1, 9 5:       0.03817521
Pair 0 1, 9 6:       0.03408779
Pair 0 1, 9 7:       0.04300589
Pair 0 1, 9 8:       0.03903398
Pair 0 1, 9 9:       0.04030332
Pair 0 1, 9 10:       0.04548534
Pair 0 1, 9 11:       0.04801320
Pair 0 1, 9 12:       0.04964714
Pair 0 1, 9 13:       0.04260440
Pair 0 1, 9 14:       0.04719496
Pair 0 1, 9 15:       0.04908708
Pair 0 1, 9 16:       0.04564274
Pair 0 1, 9 17:       0.03901517
Pair 0 1, 9 18:       0.04026692
Pair 0 1, 10 0:       0.05891365
Pair 0 1, 10 1:       0.04517106
Pair 0 1, 10 2:       0.04145293
Pair 0 1, 10 3:       0.04669277
Pair 0 1, 10 4:       0.05673070
Pair 0 1, 10 5:       0.06059238
Pair 0 1, 10 6:       0.06485139
Pair 0 1, 10 7:       0.04045476
Pair 0 1, 10 8:       0.05302547
Pair 0 1, 10 9:       0.06150663
Pair 0 1, 10 10:       0.05142990
Pair 0 1, 10 11:       0.03377967
Pair 0 1, 10 12:       0.03670984
Pair 0 1, 10 13:       0.02501159
Pair 0 1, 10 14:       0.02779386
Pair 0 1, 10 15:       0.03369779
Pair 0 1, 10 16:       0.03964172
Pair 0 1, 10 17:       0.03245992
Pair 0 1, 10 18:       0.03968076
Pair 0 1, 11 0:       0.66096576
Pair 0 1, 11 1:       0.70086221
Pair 0 1, 11 2:       0.66030221
Pair 0 1, 11 3:       0.76246878
Pair 0 1, 11 4:       0.77286610
Pair 0 1, 11 5:       0.79204931
Pair 0 1, 11 6:       0.55922240
Pair 0 1, 11 7:       0.55396736
Pair 0 1, 11 8:       0.52109420
Pair 0 1, 11 9:       0.53066112
Pair 0 1, 11 10:       0.45630252
Pair 0 1, 11 11:       0.46578990
Pair 0 1, 11 12:       0.52635955
Pair 0 1, 11 13:       0.60486296
Pair 0 1, 11 14:       0.64318928
Pair 0 1, 11 15:       0.45264726
Pair 0 1, 11 16:       0.44834956
Pair 0 1, 11 17:       0.40013728
Pair 0 1, 11 18:       0.60088086
Pair 0 1, 11 19:       0.55807254
Pair 0 1, 11 20:       0.53624741
Pair 0 1, 11 21:       0.53405741
Pair 0 1, 11 22:       0.54847324
Pair 0 1, 11 23:       0.53952357
Pair 0 1, 11 24:       0.62093300
Pair 0 1, 11 25:       0.60130792
Pair 0 1, 11 26:       0.57615061
Pair 0 1, 11 27:       0.66650483
Pair 0 1, 11 28:       0.67209189
Pair 0 1, 11 29:       0.66676536
Pair 0 1, 11 30:       0.56581508
Pair 0 1, 11 31:       0.55512615
Pair 0 1, 11 32:       0.57647995
Pair 0 1, 11 33:       0.51995225
Pair 0 1, 11 34:       0.53553631
Pair 0 1, 12 0:      -0.01394943
Pair 0 1, 12 1:      -0.05148897
Pair 0 1, 12 2:      -0.12727661
Pair 0 1, 12 3:       0.04070929
Pair 0 1, 12 4:       0.12918339
Pair 0 1, 12 5:       0.06412415
Pair 0 1, 12 6:       0.11149611
Pair 0 1, 12 7:      -0.09934922
Pair 0 1, 12 8:       0.05826523
Pair 0 1, 12 9:       0.09545834
Pair 0 1, 12 10:       0.08136982
Pair 0 1, 12 11:      -0.17944905
Pair 0 1, 12 12:      -0.01013504
Pair 0 1, 12 13:      -0.05067392
Pair 0 1, 12 14:      -0.06907699
Pair 0 1, 12 15:      -0.04538329
Pair 0 1, 12 16:      -0.01308992
Pair 0 1, 12 17:      -0.01910771
Pair 0 1, 12 18:      -0.00051143
Pair 0 2, 1 0:       0.18173173
Pair 0 2, 1 1:       0.16174543
Pair 0 2, 1 2:       0.12825843
Pair 0 2, 1 3:       0.13084494
Pair 0 2, 1 4:      17.60510680
Pair 0 2, 1 5:      -0.39607929
Pair 0 2, 2 0:       0.00324704
Pair 0 2, 2 1:       0.24673969
Pair 0 2, 2 2:      -0.16288467
Pair 0 2, 2 3:       0.01980253
Pair 0 2, 2 4:      -0.00120280
Pair 0 2, 2 5:       0.11767222
Pair 0 2, 2 6:       0.11386174
Pair 0 2, 2 7:       0.25243861
Pair 0 2, 2 8:       0.17172544
Pair 0 2, 3 0:       0.07537109
Pair 0 2, 3 1:       0.04763376
Pair 0 2, 3 2:       0.04262845
Pair 0 2, 3 3:       0.04949680
Pair 0 2, 3 4:       0.05456791
Pair 0 2, 3 5:       0.07849382
Pair 0 2, 3 6:       0.08351124
Pair 0 2, 3 7:       0.07854640
Pair 0 2, 4 0:       0.01026723
Pair 0 2, 4 1:       0.20435905
Pair 0 2, 4 2:      -0.07951966
Pair 0 2, 4 3:       0.06403745
Pair 0 2, 4 4:       0.06525874
Pair 0 2, 4 5:       0.17359362
Pair 0 2, 4 6:      -0.25973600
Pair 0 2, 4 7:       0.18142183
Pair 0 2, 4 8:       0.12023076
Pair 0 2, 4 9:      -0.04965439
Pair 0 2, 5 0:       0.04391228
Pair 0 2, 5 1:      -0.10051220
Pair 0 2, 5 2:       0.09909995
Pair 0 2, 5 3:       0.03924741
Pair 0 2, 5 4:       0.04711794
Pair 0 2, 5 5:       0.12361325
Pair 0 2, 5 6:       0.06557670
Pair 0 2, 5 7:      -0.08000039
Pair 0 2, 6 0:       0.04022318
Pair 0 2, 6 1:       0.02138540
Pair 0 2, 6 2:       0.04115026
Pair 0 2, 6 3:       0.04036546
Pair 0 2, 6 4:       0.03741377
Pair 0 2, 6 5:       0.03958656
Pair 0 2, 7 0:       0.85046331
Pair 0 2, 7 1:       1.11535803
Pair 0 2, 7 2:       0.95488543
Pair 0 2, 7 3:       1.06236606
Pair 0 2, 7 4:       1.06744760
Pair 0 2, 7 5:       0.97661374
Pair 0 2, 7 6:       0.78715812
Pair 0 2, 7 7:       0.78890142
Pair 0 2, 7 8:       0.83929315
Pair 0 2, 7 9:       0.91116511
Pair 0 2, 7 10:       0.98168014
Pair 0 2, 7 11:       0.84650652
Pair 0 2, 7 12:       0.90667799
Pair 0 2, 7 13:       0.85723556
Pair 0 2, 7 14:       0.98417855
Pair 0 2, 7 15:       0.89796165
Pair 0 2, 7 16:       0.92135279
Pair 0 2, 7 17:       0.93637305
Pair 0 2, 7 18:       0.99409249
Pair 0 2, 7 19:       1.07054516
Pair 0 2, 7 20:       1.07727112
Pair 0 2, 7 21:       0.96582827
Pair 0 2, 7 22:       1.13203934
Pair 0 2, 7 23:       1.12179610
Pair 0 2, 7 24:       0.95761981
Pair 0 2, 7 25:       0.87464931
Pair 0 2, 7 26:       0.91301899
Pair 0 2, 7 27:       0.84158077
Pair 0 2, 8 0:      -0.70954523
Pair 0 2, 8 1:      -0.62298639
Pair 0 2, 8 2:      -0.62298639
Pair 0 2, 8 3:      -0.60334717
Pair 0 2, 8 4:      -0.60334717
Pair 0 2, 8 5:      -0.68413864
Pair 0 2, 9 0:       0.03609381
Pair 0 2, 9 1:       0.03598008
Pair 0 2, 9 2:       0.03471573
Pair 0 2, 9 3:       0.03197410
Pair 0 2, 9 4:       0.03113269
Pair 0 2, 9 5:       0.03282124
Pair 0 2, 9 6:       0.03190085
Pair 0 2, 9 7:       0.03763458
Pair 0 2, 9 8:       0.03431685
Pair 0 2, 9 9:       0.03435658
Pair 0 2, 9 10:       0.03669758
Pair 0 2, 9 11:       0.04048480
Pair 0 2, 9 12:       0.03937466
Pair 0 2, 9 13:       0.03637872
Pair 0 2, 9 14:       0.03925935
Pair 0 2, 9 15:       0.03899066
Pair 0 2, 9 16:       0.03635329
Pair 0 2, 9 17:       0.03371623
Pair 0 2, 9 18:       0.03375533
Pair 0 2, 10 0:       0.03935230
Pair 0 2, 10 1:       0.03448275
Pair 0 2, 10 2:       0.03744444
Pair 0 2, 10 3:       0.04044549
Pair 0 2, 10 4:       0.03990755
Pair 0 2, 10 5:       0.04041086
Pair 0 2, 10 6:       0.04167908
Pair 0 2, 10 7:       0.03535556
Pair 0 2, 10 8:       0.03738610
Pair 0 2, 10 9:       0.03957658
Pair 0 2, 10 10:       0.03706353
Pair 0 2, 10 11:       0.03347392
Pair 0 2, 10 12:       0.03413281
Pair 0 2, 10 13:       0.02937872
Pair 0 2, 10 14:       0.03339296
Pair 0 2, 10 15:       0.03430515
Pair 0 2, 10 16:       0.03527642
Pair 0 2, 10 17:       0.02974174
Pair 0 2, 10 18:       0.03617928
Pair 0 2, 11 0:       0.63598756
Pair 0 2, 11 1:       0.65151669
Pair 0 2, 11 2:       0.63184236
Pair 0 2, 11 3:       0.68500569
Pair 0 2, 11 4:       0.66342223
Pair 0 2, 11 5:       0.68703169
Pair 0 2, 11 6:       0.58614725
Pair 0 2, 11 7:       0.60305404
Pair 0 2, 11 8:       0.59399336
Pair 0 2, 11 9:       0.59595510
Pair 0 2, 11 10:       0.57835198
Pair 0 2, 11 11:       0.58278033
Pair 0 2, 11 12:       0.58514478
Pair 0 2, 11 13:       0.60565454
Pair 0 2, 11 14:       0.63238542
Pair 0 2, 11 15:       0.57312037
Pair 0 2, 11 16:       0.56334699
Pair 0 2, 11 17:       0.53928603
Pair 0 2, 11 18:       0.62098332
Pair 0 2, 11 19:       0.60033355
Pair 0 2, 11 20:       0.59850658
Pair 0 2, 11 21:       0.59575558
Pair 0 2, 11 22:       0.59618095
Pair 0 2, 11 23:       0.59182649
Pair 0 2, 11 24:       0.61923560
Pair 0 2, 11 25:       0.61005105
Pair 0 2, 11 26:       0.60308531
Pair 0 2, 11 27:       0.63425575
Pair 0 2, 11 28:       0.63867969
Pair 0 2, 11 29:       0.63679752
Pair 0 2, 11 30:       0.59720020
Pair 0 2, 11 31:       0.59081543
Pair 0 2, 11 32:       0.59479980
Pair 0 2, 11 33:       0.59047878
Pair 0 2, 11 34:       0.59738375
Pair 0 2, 12 0:       0.05706558
Pair 0 2, 12 1:      -0.00992438
Pair 0 2, 12 2:      -0.04673009
Pair 0 2, 12 3:       0.06715486
Pair 0 2, 12 4:       0.10890313
Pair 0 2, 12 5:       0.04135511
Pair 0 2, 12 6:       0.07805131
Pair 0 2, 12 7:      -0.05765930
Pair 0 2, 12 8:       0.05571053
Pair 0 2, 12 9:       0.09967017
Pair 0 2, 12 10:       0.11668218
Pair 0 2, 12 11:      -0.09011008
Pair 0 2, 12 12:       0.06720747
Pair 0 2, 12 13:       0.00893945
Pair 0 2, 12 14:      -0.00048027
Pair 0 2, 12 15:       0.02842010
Pair 0 2, 12 16:       0.05714584
Pair 0 2, 12 17:       0.02725112
Pair 0 2, 12 18:       0.05371720
Pair 0 3, 1 0:      -0.30644602
Pair 0 3, 1 1:      -0.25073285
Pair 0 3, 1 2:      -0.04812329
Pair 0 3, 1 3:      -0.07761559
Pair 0 3, 1 4:      -1.03826698
Pair 0 3, 1 5:      -0.47084299
Pair 0 3, 2 0:       0.11001981
Pair 0 3, 2 1:      -1.14885276
Pair 0 3, 2 2:      -0.60519504
Pair 0 3, 2 3:       0.11817481
Pair 0 3, 2 4:       0.11150022
Pair 0 3, 2 5:       0.19422087
Pair 0 3, 2 6:       0.16795040
Pair 0 3, 2 7:       0.01179141
Pair 0 3, 2 8:      -0.06741733
Pair 0 3, 3 0:       0.13456181
Pair 0 3, 3 1:       0.15151178
Pair 0 3, 3 2:       0.12821133
Pair 0 3, 3 3:       0.15586018
Pair 0 3, 3 4:       0.15853143
Pair 0 3, 3 5:       0.12552880
Pair 0 3, 3 6:       0.14080953
Pair 0 3, 3 7:       0.14554889
Pair 0 3, 4 0:       0.07416589
Pair 0 3, 4 1:      -0.01351524
Pair 0 3, 4 2:      -0.30218988
Pair 0 3, 4 3:       0.10918619
Pair 0 3, 4 4:      -0.02977972
Pair 0 3, 4 5:       0.07972530
Pair 0 3, 4 6:       0.12943008
Pair 0 3, 4 7:       0.22901064
Pair 0 3, 4 8:       0.17054576
Pair 0 3, 4 9:      -0.01679597
Pair 0 3, 5 0:       0.01118832
Pair 0 3, 5 1:       0.16408748
Pair 0 3, 5 2:       0.29307537
Pair 0 3, 5 3:       0.03391441
Pair 0 3, 5 4:       0.02309911
Pair 0 3, 5 5:       0.38385578
Pair 0 3, 5 6:      -0.00332185
Pair 0 3, 5 7:      -0.14051205
Pair 0 3, 6 0:       0.03001905
Pair 0 3, 6 1:       0.03483904
Pair 0 3, 6 2:       0.04196538
Pair 0 3, 6 3:       0.04277198
Pair 0 3, 6 4:       0.02888987
Pair 0 3, 6 5:       0.02952433
Pair 0 3, 7 0:       0.79663720
Pair 0 3, 7 1:       1.12873764
Pair 0 3, 7 2:       0.96181490
Pair 0 3, 7 3:       1.14024506
Pair 0 3, 7 4:       1.05434407
Pair 0 3, 7 5:       1.00132348
Pair 0 3, 7 6:       0.75821335
Pair 0 3, 7 7:       0.78019705
Pair 0 3, 7 8:       0.83210610
Pair 0 3, 7 9:       0.90469157
Pair 0 3, 7 10:       1.01661161
Pair 0 3, 7 11:       0.84674207
Pair 0 3, 7 12:       0.92381214
Pair 0 3, 7 13:       0.84572450
Pair 0 3, 7 14:       1.00138389
Pair 0 3, 7 15:       0.90948679
Pair 0 3, 7 16:       0.88891784
Pair 0 3, 7 17:       0.87654075
Pair 0 3, 7 18:       0.97337789
Pair 0 3, 7 19:       1.02308574
Pair 0 3, 7 20:       1.05267120
Pair 0 3, 7 21:       0.94298934
Pair 0 3, 7 22:       1.11285743
Pair 0 3, 7 23:       1.04645536
Pair 0 3, 7 24:       0.93334100
Pair 0 3, 7 25:       0.85358958
Pair 0 3, 7 26:       0.89259769
Pair 0 3, 7 27:       0.80547419
Pair 0 3, 8 0:      -0.59417255
Pair 0 3, 8 1:      -0.48042447
Pair 0 3, 8 2:      -0.48042447
Pair 0 3, 8 3:      -0.55451765
Pair 0 3, 8 4:      -0.55451765
Pair 0 3, 8 5:      -0.62860146
Pair 0 3, 9 0:       0.03642120
Pair 0 3, 9 1:       0.03152501
Pair 0 3, 9 2:       0.03214787
Pair 0 3, 9 3:       0.03338748
Pair 0 3, 9 4:       0.03514198
Pair 0 3, 9 5:       0.03592915
Pair 0 3, 9 6:       0.03717373
Pair 0 3, 9 7:       0.03869949
Pair 0 3, 9 8:       0.03601649
Pair 0 3, 9 9:       0.03645408
Pair 0 3, 9 10:       0.03840782
Pair 0 3, 9 11:       0.04050234
Pair 0 3, 9 12:       0.03984385
Pair 0 3, 9 13:       0.03749975
Pair 0 3, 9 14:       0.04082269
Pair 0 3, 9 15:       0.04023509
Pair 0 3, 9 16:       0.03709336
Pair 0 3, 9 17:       0.03414541
Pair 0 3, 9 18:       0.03419224
Pair 0 3, 10 0:       0.03124659
Pair 0 3, 10 1:       0.03311402
Pair 0 3, 10 2:       0.03627506
Pair 0 3, 10 3:       0.03623915
Pair 0 3, 10 4:       0.03358573
Pair 0 3, 10 5:       0.02846013
Pair 0 3, 10 6:       0.03045167
Pair 0 3, 10 7:       0.03543680
Pair 0 3, 10 8:       0.03476710
Pair 0 3, 10 9:       0.03293942
Pair 0 3, 10 10:       0.03379059
Pair 0 3, 10 11:       0.03518460
Pair 0 3, 10 12:       0.03634003
Pair 0 3, 10 13:       0.04161542
Pair 0 3, 10 14:       0.04068402
Pair 0 3, 10 15:       0.03717764
Pair 0 3, 10 16:       0.03465990
Pair 0 3, 10 17:       0.03799011
Pair 0 3, 10 18:       0.03676089
Pair 0 3, 11 0:       0.59617412
Pair 0 3, 11 1:       0.59713046
Pair 0 3, 11 2:       0.61410092
Pair 0 3, 11 3:       0.53984791
Pair 0 3, 11 4:       0.59220630
Pair 0 3, 11 5:       0.56804704
Pair 0 3, 11 6:       0.58168203
Pair 0 3, 11 7:       0.54014714
Pair 0 3, 11 8:       0.59557378
Pair 0 3, 11 9:       0.58941660
Pair 0 3, 11 10:       0.56344956
Pair 0 3, 11 11:       0.57577981
Pair 0 3, 11 12:       0.52557842
Pair 0 3, 11 13:       0.59933560
Pair 0 3, 11 14:       0.58086964
Pair 0 3, 11 15:       0.57824703
Pair 0 3, 11 16:       0.59731707
Pair 0 3, 11 17:       0.51690342
Pair 0 3, 11 18:       0.60871160
Pair 0 3, 11 19:       0.61799290
Pair 0 3, 11 20:       0.59891377
Pair 0 3, 11 21:       0.59099273
Pair 0 3, 11 22:       0.60939160
Pair 0 3, 11 23:       0.57802698
Pair 0 3, 11 24:       0.60336585
Pair 0 3, 11 25:       0.61718160
Pair 0 3, 11 26:       0.59654376
Pair 0 3, 11 27:       0.58104652
Pair 0 3, 11 28:       0.61923768
Pair 0 3, 11 29:       0.60192825
Pair 0 3, 11 30:       0.59017116
Pair 0 3, 11 31:       0.58132824
Pair 0 3, 11 32:       0.58001154
Pair 0 3, 11 33:       0.57618644
Pair 0 3, 11 34:       0.59008029
Pair 0 3, 12 0:       0.02747262
Pair 0 3, 12 1:      -0.02924401
Pair 0 3, 12 2:      -0.00447497
Pair 0 3, 12 3:       0.10976867
Pair 0 3, 12 4:       0.12957377
Pair 0 3, 12 5:       0.03923296
Pair 0 3, 12 6:       0.09840718
Pair 0 3, 12 7:       0.00804424
Pair 0 3, 12 8:       0.00891784
Pair 0 3, 12 9:      -0.00313504
Pair 0 3, 12 10:       0.01293424
Pair 0 3, 12 11:      -0.05710822
Pair 0 3, 12 12:      -0.00789936
Pair 0 3, 12 13:       0.02428174
Pair 0 3, 12 14:      -0.00594743
Pair 0 3, 12 15:       0.00244165
Pair 0 3, 12 16:       0.02699513
Pair 0 3, 12 17:       0.03716716
Pair 0 3, 12 18:       0.03496535
Pair 0 4, 1 0:      -0.29105598
Pair 0 4, 1 1:      -0.21150778
Pair 0 4, 1 2:      -0.03208040
Pair 0 4, 1 3:      -0.03061737
Pair 0 4, 1 4:      -0.81357138
Pair 0 4, 1 5:      -0.33227619
Pair 0 4, 2 0:       0.10341091
Pair 0 4, 2 1:      -2.09514251
Pair 0 4, 2 2:      -1.52362466
Pair 0 4, 2 3:       0.11410451
Pair 0 4, 2 4:       0.10207996
Pair 0 4, 2 5:      -0.10070207
Pair 0 4, 2 6:       0.00837753
Pair 0 4, 2 7:      -0.16840302
Pair 0 4, 2 8:      -0.10926119
Pair 0 4, 3 0:       0.14726900
Pair 0 4, 3 1:       0.19223967
Pair 0 4, 3 2:       0.18795508
Pair 0 4, 3 3:       0.21279111
Pair 0 4, 3 4:       0.20982203
Pair 0 4, 3 5:       0.11649915
Pair 0 4, 3 6:       0.15300592
Pair 0 4, 3 7:       0.15367475
Pair 0 4, 4 0:       0.19357270
Pair 0 4, 4 1:      -0.06717813
Pair 0 4, 4 2:      -0.46639653
Pair 0 4, 4 3:       0.21276151
Pair 0 4, 4 4:      -0.05165353
Pair 0 4, 4 5:       0.01573981
Pair 0 4, 4 6:       0.26922541
Pair 0 4, 4 7:       0.27848132
Pair 0 4, 4 8:       0.33942890
Pair 0 4, 4 9:       0.01356097
Pair 0 4, 5 0:       0.04895671
Pair 0 4, 5 1:       0.27225712
Pair 0 4, 5 2:      -0.04042915
Pair 0 4, 5 3:       0.05540424
Pair 0 4, 5 4:       0.05579779
Pair 0 4, 5 5:       0.12306716
Pair 0 4, 5 6:      -0.01064910
Pair 0 4, 5 7:       0.02704903
Pair 0 4, 6 0:       0.08193321
Pair 0 4, 6 1:       0.11547402
Pair 0 4, 6 2:       0.08421220
Pair 0 4, 6 3:       0.08389153
Pair 0 4, 6 4:       0.08371328
Pair 0 4, 6 5:       0.08306848
Pair 0 4, 7 0:       1.46802864
Pair 0 4, 7 1:       1.94626246
Pair 0 4, 7 2:       1.81550497
Pair 0 4, 7 3:       2.06670764
Pair 0 4, 7 4:       2.03927267
Pair 0 4, 7 5:       1.72172026
Pair 0 4, 7 6:       1.23168173
Pair 0 4, 7 7:       1.21896459
Pair 0 4, 7 8:       1.31110412
Pair 0 4, 7 9:       1.52257522
Pair 0 4, 7 10:       1.67756187
Pair 0 4, 7 11:       1.35312674
Pair 0 4, 7 12:       1.46413068
Pair 0 4, 7 13:       1.37843925
Pair 0 4, 7 14:       1.58052230
Pair 0 4, 7 15:       1.43593186
Pair 0 4, 7 16:       1.40932929
Pair 0 4, 7 17:       1.47171446
Pair 0 4, 7 18:       1.56823036
Pair 0 4, 7 19:       1.64736499
Pair 0 4, 7 20:       1.66421031
Pair 0 4, 7 21:       1.49219560
Pair 0 4, 7 22:       1.88321102