 Entering Gaussian System, Link 0=/opt/g09/gaussian/g09/bin/g09
 Input=12-ethanediol-m06lsp-5-1-2-6-073.com
 Output=12-ethanediol-m06lsp-5-1-2-6-073.log
 Initial command:
 /opt/g09/gaussian/g09/bin/l1.exe /scratch/Gau-12-ethanediol/Gau-26968.inp -scrdir=/scratch/Gau-12-ethanediol/
 Entering Link 1 = /opt/g09/gaussian/g09/bin/l1.exe PID=     26973.
  
 Copyright (c) 1988,1990,1992,1993,1995,1998,2003,2009, Gaussian, Inc.
                  All Rights Reserved.
  
 This is part of the Gaussian(R) 09 program.  It is based on
 the Gaussian(R) 03 system (copyright 2003, Gaussian, Inc.),
 the Gaussian(R) 98 system (copyright 1998, Gaussian, Inc.),
 the Gaussian(R) 94 system (copyright 1995, Gaussian, Inc.),
 the Gaussian 92(TM) system (copyright 1992, Gaussian, Inc.),
 the Gaussian 90(TM) system (copyright 1990, Gaussian, Inc.),
 the Gaussian 88(TM) system (copyright 1988, Gaussian, Inc.),
 the Gaussian 86(TM) system (copyright 1986, Carnegie Mellon
 University), and the Gaussian 82(TM) system (copyright 1983,
 Carnegie Mellon University). Gaussian is a federally registered
 trademark of Gaussian, Inc.
  
 This software contains proprietary and confidential information,
 including trade secrets, belonging to Gaussian, Inc.
  
 This software is provided under written license and may be
 used, copied, transmitted, or stored only in accord with that
 written license.
  
 The following legend is applicable only to US Government
 contracts under FAR:
  
                    RESTRICTED RIGHTS LEGEND
  
 Use, reproduction and disclosure by the US Government is
 subject to restrictions as set forth in subparagraphs (a)
 and (c) of the Commercial Computer Software - Restricted
 Rights clause in FAR 52.227-19.
  
 Gaussian, Inc.
 340 Quinnipiac St., Bldg. 40, Wallingford CT 06492
  
  
 ---------------------------------------------------------------
 Warning -- This program may not be used in any manner that
 competes with the business of Gaussian, Inc. or will provide
 assistance to any competitor of Gaussian, Inc.  The licensee
 of this program is prohibited from giving any competitor of
 Gaussian, Inc. access to this program.  By using this program,
 the user acknowledges that Gaussian, Inc. is engaged in the
 business of creating and licensing software in the field of
 computational chemistry and represents and warrants to the
 licensee that it is not a competitor of Gaussian, Inc. and that
 it will not use this program in any manner prohibited above.
 ---------------------------------------------------------------
  

 Cite this work as:
 Gaussian 09, Revision A.02,
 M. J. Frisch, G. W. Trucks, H. B. Schlegel, G. E. Scuseria, 
 M. A. Robb, J. R. Cheeseman, G. Scalmani, V. Barone, B. Mennucci, 
 G. A. Petersson, H. Nakatsuji, M. Caricato, X. Li, H. P. Hratchian, 
 A. F. Izmaylov, J. Bloino, G. Zheng, J. L. Sonnenberg, M. Hada, 
 M. Ehara, K. Toyota, R. Fukuda, J. Hasegawa, M. Ishida, T. Nakajima, 
 Y. Honda, O. Kitao, H. Nakai, T. Vreven, J. A. Montgomery, Jr., 
 J. E. Peralta, F. Ogliaro, M. Bearpark, J. J. Heyd, E. Brothers, 
 K. N. Kudin, V. N. Staroverov, R. Kobayashi, J. Normand, 
 K. Raghavachari, A. Rendell, J. C. Burant, S. S. Iyengar, J. Tomasi, 
 M. Cossi, N. Rega, J. M. Millam, M. Klene, J. E. Knox, J. B. Cross, 
 V. Bakken, C. Adamo, J. Jaramillo, R. Gomperts, R. E. Stratmann, 
 O. Yazyev, A. J. Austin, R. Cammi, C. Pomelli, J. W. Ochterski, 
 R. L. Martin, K. Morokuma, V. G. Zakrzewski, G. A. Voth, 
 P. Salvador, J. J. Dannenberg, S. Dapprich, A. D. Daniels, 
 O. Farkas, J. B. Foresman, J. V. Ortiz, J. Cioslowski, 
 and D. J. Fox, Gaussian, Inc., Wallingford CT, 2009.
 
 ******************************************
 Gaussian 09:  EM64L-G09RevA.02 11-Jun-2009
                 3-Sep-2010 
 ******************************************
 %RWF=/scratch/Gau-12-ethanediol/,64GB
 %Chk=12-ethanediol-m06lsp-5-1-2-6-073.chk
 %Mem=778484KB
 %Nproc=1
 Will use up to    1 processors via shared memory.
 --------------------------------------------------------------
 #M06L/6-31G** SP SCF=(qc,maxcycle=800) Guess=Indo MaxDisk=64GB
 --------------------------------------------------------------
 1/38=1/1;
 2/12=2,17=6,18=5,40=1/2;
 3/5=1,6=6,7=101,11=2,16=1,25=1,30=1,74=-53/1,2,3;
 4/5=4,11=3/1;
 5/5=2,7=800,8=3,38=5/8;
 6/7=2,8=2,9=2,10=2,28=1/1;
 99/5=1,9=1/99;
 -------------------------------------------------------------------
 12-ethanediol Rotatable Bond SP Calculation on node7.bme.utexas.edu
 -------------------------------------------------------------------
 Symbolic Z-matrix:
 Charge =  0 Multiplicity = 1
 C                     0.28046   0.70125   0.52326 
 C                    -0.28046  -0.70125   0.52326 
 H                     0.20964   2.20916  -0.69075 
 H                    -0.20964  -2.20916  -0.69075 
 O                    -0.28046   1.41305  -0.54478 
 O                     0.28046  -1.41305  -0.54478 
 H                     0.03991   1.17767   1.47271 
 H                     1.36225   0.64411   0.43672 
 H                    -0.03991  -1.17767   1.47271 
 H                    -1.36225  -0.64411   0.43672 
 
                          Input orientation:                          
 ---------------------------------------------------------------------
 Center     Atomic      Atomic             Coordinates (Angstroms)
 Number     Number       Type             X           Y           Z
 ---------------------------------------------------------------------
      1          6           0        0.280458    0.701252    0.523262
      2          6           0       -0.280458   -0.701252    0.523262
      3          1           0        0.209636    2.209163   -0.690751
      4          1           0       -0.209636   -2.209163   -0.690751
      5          8           0       -0.280458    1.413052   -0.544781
      6          8           0        0.280458   -1.413052   -0.544781
      7          1           0        0.039906    1.177670    1.472709
      8          1           0        1.362249    0.644112    0.436718
      9          1           0       -0.039906   -1.177670    1.472709
     10          1           0       -1.362249   -0.644112    0.436718
 ---------------------------------------------------------------------
                    Distance matrix (angstroms):
                    1          2          3          4          5
     1  C    0.000000
     2  C    1.510511   0.000000
     3  H    1.937173   3.191322   0.000000
     4  H    3.191322   1.937173   4.438175   0.000000
     5  O    1.400715   2.368754   0.946199   3.625847   0.000000
     6  O    2.368754   1.400715   3.625847   0.946199   2.881231
     7  H    1.089169   2.129420   2.402779   4.026595   2.056284
     8  H    1.086750   2.125084   2.247018   3.447200   2.062303
     9  H    2.129420   1.089169   4.026595   2.402779   3.292411
    10  H    2.125084   1.086750   3.447200   2.247018   2.523001
                    6          7          8          9         10
     6  O    0.000000
     7  H    3.292411   0.000000
     8  H    2.523001   1.762541   0.000000
     9  H    2.056284   2.356692   2.521548   0.000000
    10  H    2.062303   2.521548   3.013704   1.762541   0.000000
 Stoichiometry    C2H6O2
 Framework group  C2[X(C2H6O2)]
 Deg. of freedom    13
 Full point group                 C2      NOp   2
 Largest Abelian subgroup         C2      NOp   2
 Largest concise Abelian subgroup C2      NOp   2
                         Standard orientation:                         
 ---------------------------------------------------------------------
 Center     Atomic      Atomic             Coordinates (Angstroms)
 Number     Number       Type             X           Y           Z
 ---------------------------------------------------------------------
      1          6           0        0.280458    0.701252    0.523262
      2          6           0       -0.280458   -0.701252    0.523262
      3          1           0        0.209636    2.209163   -0.690751
      4          1           0       -0.209636   -2.209163   -0.690751
      5          8           0       -0.280458    1.413052   -0.544781
      6          8           0        0.280458   -1.413052   -0.544781
      7          1           0        0.039906    1.177670    1.472709
      8          1           0        1.362249    0.644112    0.436718
      9          1           0       -0.039906   -1.177670    1.472709
     10          1           0       -1.362249   -0.644112    0.436718
 ---------------------------------------------------------------------
 Rotational constants (GHZ):     17.0748510      5.1896598      4.5462905
 Standard basis: 6-31G(d,p) (6D, 7F)
 There are    45 symmetry adapted basis functions of A   symmetry.
 There are    45 symmetry adapted basis functions of B   symmetry.
 Integral buffers will be    131072 words long.
 Raffenetti 2 integral format.
 Two-electron integral symmetry is turned on.
    90 basis functions,   154 primitive gaussians,    90 cartesian basis functions
    17 alpha electrons       17 beta electrons
       nuclear repulsion energy       133.4469923616 Hartrees.
 NAtoms=   10 NActive=   10 NUniq=    5 SFac= 3.00D+00 NAtFMM=   80 NAOKFM=F Big=F
 One-electron integrals computed using PRISM.
 NBasis=    90 RedAO= T  NBF=    45    45
 NBsUse=    90 1.00D-06 NBFU=    45    45
 Projected INDO guess.
 Initial guess orbital symmetries:
       Occupied  (A) (B) (B) (A) (A) (B) (A) (B) (A) (B) (A) (B)
                 (A) (B) (A) (B) (A)
       Virtual   (B) (B) (A) (A) (B) (A) (B) (A) (B) (A) (A) (A)
                 (A) (A) (A) (A) (A) (A) (A) (A) (A) (A) (A) (A)
                 (A) (A) (A) (A) (A) (A) (A) (A) (A) (A) (A) (A)
                 (A) (A) (A) (A) (A) (B) (B) (B) (B) (B) (B) (B)
                 (B) (B) (B) (B) (B) (B) (B) (B) (B) (B) (B) (B)
                 (B) (B) (B) (B) (B) (B) (B) (B) (B) (B) (B) (B)
                 (B)
 The electronic state of the initial guess is 1-A.
 Keep J ints in memory in canonical form, NReq=9445589.
 Gradient too large for Newton-Raphson -- use scaled steepest descent instead.
 Gradient too large for Newton-Raphson -- use scaled steepest descent instead.
 Gradient too large for Newton-Raphson -- use scaled steepest descent instead.
 Gradient too large for Newton-Raphson -- use scaled steepest descent instead.
 Gradient too large for Newton-Raphson -- use scaled steepest descent instead.
 Gradient too large for Newton-Raphson -- use scaled steepest descent instead.
 Gradient too large for Newton-Raphson -- use scaled steepest descent instead.
 LinEq1:  Iter=  0 NonCon=     1 RMS=6.00D-05 Max=6.33D-04
 AX will form     1 AO Fock derivatives at one time.
 LinEq1:  Iter=  1 NonCon=     1 RMS=3.20D-05 Max=3.21D-04
 LinEq1:  Iter=  2 NonCon=     1 RMS=2.65D-06 Max=3.09D-05
 LinEq1:  Iter=  3 NonCon=     1 RMS=1.76D-07 Max=1.54D-06
 LinEq1:  Iter=  4 NonCon=     1 RMS=2.53D-08 Max=1.57D-07
 LinEq1:  Iter=  5 NonCon=     1 RMS=1.94D-08 Max=2.24D-07
 LinEq1:  Iter=  6 NonCon=     0 RMS=2.13D-09 Max=1.44D-08
 Linear equations converged to 4.982D-09 4.982D-08 after     6 iterations.
 LinEq1:  Iter=  0 NonCon=     1 RMS=2.29D-08 Max=3.53D-07
 LinEq1:  Iter=  1 NonCon=     1 RMS=7.22D-09 Max=7.20D-08
 LinEq1:  Iter=  2 NonCon=     1 RMS=3.43D-09 Max=3.06D-08
 LinEq1:  Iter=  3 NonCon=     1 RMS=1.64D-09 Max=1.84D-08
 LinEq1:  Iter=  4 NonCon=     1 RMS=9.12D-10 Max=7.14D-09
 LinEq1:  Iter=  5 NonCon=     1 RMS=2.89D-10 Max=2.44D-09
 LinEq1:  Iter=  6 NonCon=     1 RMS=5.24D-11 Max=3.51D-10
 LinEq1:  Iter=  7 NonCon=     1 RMS=1.02D-11 Max=7.96D-11
 LinEq1:  Iter=  8 NonCon=     0 RMS=2.20D-12 Max=1.80D-11
 Linear equations converged to 9.201D-12 9.201D-11 after     8 iterations.
 LinEq1:  Iter=  0 NonCon=     1 RMS=1.43D-08 Max=2.20D-07
 LinEq1:  Iter=  1 NonCon=     1 RMS=4.50D-09 Max=4.48D-08
 LinEq1:  Iter=  2 NonCon=     1 RMS=2.13D-09 Max=1.90D-08
 LinEq1:  Iter=  3 NonCon=     1 RMS=1.02D-09 Max=1.15D-08
 LinEq1:  Iter=  4 NonCon=     1 RMS=5.68D-10 Max=4.45D-09
 LinEq1:  Iter=  5 NonCon=     1 RMS=1.80D-10 Max=1.52D-09
 LinEq1:  Iter=  6 NonCon=     1 RMS=3.26D-11 Max=2.19D-10
 LinEq1:  Iter=  7 NonCon=     1 RMS=6.36D-12 Max=4.99D-11
 LinEq1:  Iter=  8 NonCon=     0 RMS=1.40D-12 Max=1.08D-11
 Linear equations converged to 5.731D-12 5.731D-11 after     8 iterations.
 LinEq1:  Iter=  0 NonCon=     1 RMS=1.43D-08 Max=2.20D-07
 LinEq1:  Iter=  1 NonCon=     1 RMS=4.50D-09 Max=4.48D-08
 LinEq1:  Iter=  2 NonCon=     1 RMS=2.13D-09 Max=1.90D-08
 LinEq1:  Iter=  3 NonCon=     1 RMS=1.02D-09 Max=1.15D-08
 LinEq1:  Iter=  4 NonCon=     1 RMS=5.68D-10 Max=4.45D-09
 LinEq1:  Iter=  5 NonCon=     1 RMS=1.80D-10 Max=1.52D-09
 LinEq1:  Iter=  6 NonCon=     1 RMS=3.26D-11 Max=2.19D-10
 LinEq1:  Iter=  7 NonCon=     1 RMS=6.36D-12 Max=4.99D-11
 LinEq1:  Iter=  8 NonCon=     0 RMS=1.40D-12 Max=1.09D-11
 Linear equations converged to 5.731D-12 5.731D-11 after     8 iterations.
 Search did not lower the energy significantly.
 No lower point found -- using Newton-Raphson step.
 SCF Done:  E(RM06L) =  -230.215802987     a.u. after   12 cycles
            Convg  =    0.1226D-10                    97 Fock formations.
              S**2 =  0.0000                  -V/T =  2.0067

 **********************************************************************

            Population analysis using the SCF density.

 **********************************************************************

 Orbital symmetries:
       Occupied  (B) (A) (A) (B) (A) (B) (A) (B) (B) (A) (B) (A)
                 (A) (B) (A) (A) (B)
       Virtual   (A) (B) (A) (B) (A) (B) (B) (B) (A) (A) (B) (A)
                 (B) (A) (B) (A) (B) (A) (B) (A) (B) (A) (A) (B)
                 (B) (A) (A) (B) (B) (B) (A) (A) (B) (B) (A) (A)
                 (B) (A) (A) (B) (B) (A) (B) (A) (A) (B) (B) (A)
                 (B) (B) (A) (B) (A) (B) (A) (B) (A) (A) (B) (B)
                 (A) (A) (B) (A) (B) (A) (B) (A) (B) (B) (A) (A)
                 (B)
 The electronic state is 1-A.
 Alpha  occ. eigenvalues --  -18.97244 -18.97244 -10.09965 -10.09950  -0.99883
 Alpha  occ. eigenvalues --   -0.98330  -0.70433  -0.56850  -0.48459  -0.48355
 Alpha  occ. eigenvalues --   -0.38658  -0.38417  -0.38012  -0.30852  -0.27801
 Alpha  occ. eigenvalues --   -0.22636  -0.22022
 Alpha virt. eigenvalues --    0.08478   0.09619   0.13068   0.16008   0.16338
 Alpha virt. eigenvalues --    0.17216   0.20739   0.22438   0.22850   0.54003
 Alpha virt. eigenvalues --    0.54768   0.56881   0.60339   0.67194   0.68203
 Alpha virt. eigenvalues --    0.75275   0.80237   0.81965   0.82509   0.84534
 Alpha virt. eigenvalues --    0.87999   0.94192   0.98429   0.98488   0.99122
 Alpha virt. eigenvalues --    1.01248   1.14285   1.20909   1.25410   1.30754
 Alpha virt. eigenvalues --    1.39099   1.54986   1.55381   1.58824   1.59111
 Alpha virt. eigenvalues --    1.61996   1.77766   1.86910   1.90618   1.91614
 Alpha virt. eigenvalues --    1.95781   2.00660   2.03872   2.06942   2.09370
 Alpha virt. eigenvalues --    2.12548   2.28984   2.38010   2.38459   2.46036
 Alpha virt. eigenvalues --    2.49630   2.63255   2.63773   2.69538   2.73378
 Alpha virt. eigenvalues --    2.73634   2.78835   2.82563   2.82945   2.96387
 Alpha virt. eigenvalues --    2.98266   3.03329   3.10158   3.34746   3.39325
 Alpha virt. eigenvalues --    3.43984   3.56718   3.57838   3.59078   4.01883
 Alpha virt. eigenvalues --    4.02725   4.45806   4.69936
          Condensed to atoms (all electrons):
              1          2          3          4          5          6
     1  C    4.776841   0.357203  -0.022078   0.006714   0.230674  -0.058829
     2  C    0.357203   4.776841   0.006714  -0.022078  -0.058829   0.230674
     3  H   -0.022078   0.006714   0.399752   0.000026   0.294765  -0.000208
     4  H    0.006714  -0.022078   0.000026   0.399752  -0.000208   0.294765
     5  O    0.230674  -0.058829   0.294765  -0.000208   8.179513   0.005379
     6  O   -0.058829   0.230674  -0.000208   0.294765   0.005379   8.179513
     7  H    0.373693  -0.048301  -0.002151  -0.000288  -0.043642   0.003541
     8  H    0.376840  -0.034492  -0.008097  -0.000189  -0.038719  -0.000964
     9  H   -0.048301   0.373693  -0.000288  -0.002151   0.003541  -0.043642
    10  H   -0.034492   0.376840  -0.000189  -0.008097  -0.000964  -0.038719
              7          8          9         10
     1  C    0.373693   0.376840  -0.048301  -0.034492
     2  C   -0.048301  -0.034492   0.373693   0.376840
     3  H   -0.002151  -0.008097  -0.000288  -0.000189
     4  H   -0.000288  -0.000189  -0.002151  -0.008097
     5  O   -0.043642  -0.038719   0.003541  -0.000964
     6  O    0.003541  -0.000964  -0.043642  -0.038719
     7  H    0.683510  -0.054634   0.002953  -0.003226
     8  H   -0.054634   0.646663  -0.003226   0.007343
     9  H    0.002953  -0.003226   0.683510  -0.054634
    10  H   -0.003226   0.007343  -0.054634   0.646663
 Mulliken atomic charges:
              1
     1  C    0.041735
     2  C    0.041735
     3  H    0.331755
     4  H    0.331755
     5  O   -0.571509
     6  O   -0.571509
     7  H    0.088545
     8  H    0.109475
     9  H    0.088545
    10  H    0.109475
 Sum of Mulliken atomic charges =   0.00000
 Mulliken charges with hydrogens summed into heavy atoms:
              1
     1  C    0.239754
     2  C    0.239754
     5  O   -0.239754
     6  O   -0.239754
 Sum of Mulliken charges with hydrogens summed into heavy atoms =   0.00000
 Electronic spatial extent (au):  <R**2>=            303.4979
 Charge=              0.0000 electrons
 Dipole moment (field-independent basis, Debye):
    X=              0.0000    Y=              0.0000    Z=              1.2032  Tot=              1.2032
 Quadrupole moment (field-independent basis, Debye-Ang):
   XX=            -25.0866   YY=            -17.2397   ZZ=            -25.2193
   XY=              4.6807   XZ=              0.0000   YZ=              0.0000
 Traceless Quadrupole moment (field-independent basis, Debye-Ang):
   XX=             -2.5714   YY=              5.2755   ZZ=             -2.7041
   XY=              4.6807   XZ=              0.0000   YZ=              0.0000
 Octapole moment (field-independent basis, Debye-Ang**2):
  XXX=              0.0000  YYY=              0.0000  ZZZ=             -4.3775  XYY=              0.0000
  XXY=              0.0000  XXZ=             -1.3933  XZZ=              0.0000  YZZ=              0.0000
  YYZ=             -8.1590  XYZ=             -2.8367
 Hexadecapole moment (field-independent basis, Debye-Ang**3):
 XXXX=            -47.4455 YYYY=           -155.6920 ZZZZ=            -82.3367 XXXY=              3.3966
 XXXZ=              0.0000 YYYX=             17.3630 YYYZ=              0.0000 ZZZX=              0.0000
 ZZZY=              0.0000 XXYY=            -46.9933 XXZZ=            -22.4315 YYZZ=            -44.7671
 XXYZ=              0.0000 YYXZ=              0.0000 ZZXY=              1.4649
 N-N= 1.334469923616D+02 E-N=-8.071824707055D+02  KE= 2.286789169473D+02
 Symmetry A    KE= 1.154813548476D+02
 Symmetry B    KE= 1.131975620997D+02
 1\1\GINC-NODE7\SP\RM06L\6-31G(d,p)\C2H6O2\WUCH\03-Sep-2010\0\\#M06L/6-
 31G** SP SCF=(qc,maxcycle=800) Guess=Indo MaxDisk=64GB\\12-ethanediol 
 Rotatable Bond SP Calculation on node7.bme.utexas.edu\\0,1\C,0,0.28045
 8,0.701252,0.523262\C,0,-0.280458,-0.701252,0.523262\H,0,0.209636,2.20
 9163,-0.690751\H,0,-0.209636,-2.209163,-0.690751\O,0,-0.280458,1.41305
 2,-0.544781\O,0,0.280458,-1.413052,-0.544781\H,0,0.039906,1.17767,1.47
 2709\H,0,1.362249,0.644112,0.436718\H,0,-0.039906,-1.17767,1.472709\H,
 0,-1.362249,-0.644112,0.436718\\Version=EM64L-G09RevA.02\State=1-A\HF=
 -230.215803\RMSD=0.000e+00\Dipole=0.,0.,0.4733759\Quadrupole=-1.911778
 9,3.9221907,-2.0104118,3.4799727,0.,0.\PG=C02 [X(C2H6O2)]\\@


 IF THERE IS ONE WAY BETTER THAN ANOTHER IT IS THE WAY OF NATURE.

                          -- ARISTOTLE
 Job cpu time:  0 days  0 hours 12 minutes  7.0 seconds.
 File lengths (MBytes):  RWF=      5 Int=      0 D2E=      0 Chk=      1 Scr=      1
 Normal termination of Gaussian 09 at Fri Sep  3 17:47:30 2010.
