 Entering Gaussian System, Link 0=/opt/g09/gaussian/g09/bin/g09
 Input=12-ethanediol-m06lsp-5-1-2-6-283.com
 Output=12-ethanediol-m06lsp-5-1-2-6-283.log
 Initial command:
 /opt/g09/gaussian/g09/bin/l1.exe /scratch/Gau-12-ethanediol/Gau-29309.inp -scrdir=/scratch/Gau-12-ethanediol/
 Entering Link 1 = /opt/g09/gaussian/g09/bin/l1.exe PID=     29310.
  
 Copyright (c) 1988,1990,1992,1993,1995,1998,2003,2009, Gaussian, Inc.
                  All Rights Reserved.
  
 This is part of the Gaussian(R) 09 program.  It is based on
 the Gaussian(R) 03 system (copyright 2003, Gaussian, Inc.),
 the Gaussian(R) 98 system (copyright 1998, Gaussian, Inc.),
 the Gaussian(R) 94 system (copyright 1995, Gaussian, Inc.),
 the Gaussian 92(TM) system (copyright 1992, Gaussian, Inc.),
 the Gaussian 90(TM) system (copyright 1990, Gaussian, Inc.),
 the Gaussian 88(TM) system (copyright 1988, Gaussian, Inc.),
 the Gaussian 86(TM) system (copyright 1986, Carnegie Mellon
 University), and the Gaussian 82(TM) system (copyright 1983,
 Carnegie Mellon University). Gaussian is a federally registered
 trademark of Gaussian, Inc.
  
 This software contains proprietary and confidential information,
 including trade secrets, belonging to Gaussian, Inc.
  
 This software is provided under written license and may be
 used, copied, transmitted, or stored only in accord with that
 written license.
  
 The following legend is applicable only to US Government
 contracts under FAR:
  
                    RESTRICTED RIGHTS LEGEND
  
 Use, reproduction and disclosure by the US Government is
 subject to restrictions as set forth in subparagraphs (a)
 and (c) of the Commercial Computer Software - Restricted
 Rights clause in FAR 52.227-19.
  
 Gaussian, Inc.
 340 Quinnipiac St., Bldg. 40, Wallingford CT 06492
  
  
 ---------------------------------------------------------------
 Warning -- This program may not be used in any manner that
 competes with the business of Gaussian, Inc. or will provide
 assistance to any competitor of Gaussian, Inc.  The licensee
 of this program is prohibited from giving any competitor of
 Gaussian, Inc. access to this program.  By using this program,
 the user acknowledges that Gaussian, Inc. is engaged in the
 business of creating and licensing software in the field of
 computational chemistry and represents and warrants to the
 licensee that it is not a competitor of Gaussian, Inc. and that
 it will not use this program in any manner prohibited above.
 ---------------------------------------------------------------
  

 Cite this work as:
 Gaussian 09, Revision A.02,
 M. J. Frisch, G. W. Trucks, H. B. Schlegel, G. E. Scuseria, 
 M. A. Robb, J. R. Cheeseman, G. Scalmani, V. Barone, B. Mennucci, 
 G. A. Petersson, H. Nakatsuji, M. Caricato, X. Li, H. P. Hratchian, 
 A. F. Izmaylov, J. Bloino, G. Zheng, J. L. Sonnenberg, M. Hada, 
 M. Ehara, K. Toyota, R. Fukuda, J. Hasegawa, M. Ishida, T. Nakajima, 
 Y. Honda, O. Kitao, H. Nakai, T. Vreven, J. A. Montgomery, Jr., 
 J. E. Peralta, F. Ogliaro, M. Bearpark, J. J. Heyd, E. Brothers, 
 K. N. Kudin, V. N. Staroverov, R. Kobayashi, J. Normand, 
 K. Raghavachari, A. Rendell, J. C. Burant, S. S. Iyengar, J. Tomasi, 
 M. Cossi, N. Rega, J. M. Millam, M. Klene, J. E. Knox, J. B. Cross, 
 V. Bakken, C. Adamo, J. Jaramillo, R. Gomperts, R. E. Stratmann, 
 O. Yazyev, A. J. Austin, R. Cammi, C. Pomelli, J. W. Ochterski, 
 R. L. Martin, K. Morokuma, V. G. Zakrzewski, G. A. Voth, 
 P. Salvador, J. J. Dannenberg, S. Dapprich, A. D. Daniels, 
 O. Farkas, J. B. Foresman, J. V. Ortiz, J. Cioslowski, 
 and D. J. Fox, Gaussian, Inc., Wallingford CT, 2009.
 
 ******************************************
 Gaussian 09:  EM64L-G09RevA.02 11-Jun-2009
                 3-Sep-2010 
 ******************************************
 %RWF=/scratch/Gau-12-ethanediol/,64GB
 %Chk=12-ethanediol-m06lsp-5-1-2-6-283.chk
 %Mem=778484KB
 %Nproc=1
 Will use up to    1 processors via shared memory.
 --------------------------------------------------------------
 #M06L/6-31G** SP SCF=(qc,maxcycle=800) Guess=Indo MaxDisk=64GB
 --------------------------------------------------------------
 1/38=1/1;
 2/12=2,17=6,18=5,40=1/2;
 3/5=1,6=6,7=101,11=2,16=1,25=1,30=1,74=-53/1,2,3;
 4/5=4,11=3/1;
 5/5=2,7=800,8=3,38=5/8;
 6/7=2,8=2,9=2,10=2,28=1/1;
 99/5=1,9=1/99;
 -------------------------------------------------------------------
 12-ethanediol Rotatable Bond SP Calculation on node7.bme.utexas.edu
 -------------------------------------------------------------------
 Symbolic Z-matrix:
 Charge =  0 Multiplicity = 1
 C                    -0.29405   0.69608   0.50841 
 C                     0.29405  -0.69608   0.50841 
 H                    -0.20763   2.22162  -0.68458 
 H                     0.20763  -2.22162  -0.68458 
 O                     0.29405   1.43494  -0.52742 
 O                    -0.29405  -1.43494  -0.52742 
 H                    -1.37031   0.61952   0.38247 
 H                    -0.09618   1.16531   1.471 
 H                     1.37031  -0.61952   0.38247 
 H                     0.09618  -1.16531   1.471 
 
                          Input orientation:                          
 ---------------------------------------------------------------------
 Center     Atomic      Atomic             Coordinates (Angstroms)
 Number     Number       Type             X           Y           Z
 ---------------------------------------------------------------------
      1          6           0       -0.294045    0.696082    0.508405
      2          6           0        0.294045   -0.696082    0.508405
      3          1           0       -0.207627    2.221625   -0.684579
      4          1           0        0.207627   -2.221625   -0.684579
      5          8           0        0.294045    1.434936   -0.527415
      6          8           0       -0.294045   -1.434936   -0.527415
      7          1           0       -1.370308    0.619516    0.382471
      8          1           0       -0.096175    1.165306    1.471004
      9          1           0        1.370308   -0.619516    0.382471
     10          1           0        0.096175   -1.165306    1.471004
 ---------------------------------------------------------------------
                    Distance matrix (angstroms):
                    1          2          3          4          5
     1  C    0.000000
     2  C    1.511281   0.000000
     3  H    1.938546   3.191849   0.000000
     4  H    3.191849   1.938546   4.462612   0.000000
     5  O    1.401670   2.369422   0.946179   3.660957   0.000000
     6  O    2.369422   1.401670   3.660957   0.946179   2.929508
     7  H    1.086307   2.125260   2.248817   3.420608   2.064673
     8  H    1.089000   2.131580   2.403075   4.026181   2.053935
     9  H    2.125260   1.086307   3.420608   2.248817   2.491387
    10  H    2.131580   1.089000   4.026181   2.403075   3.285436
                    6          7          8          9         10
     6  O    0.000000
     7  H    2.491387   0.000000
     8  H    3.285436   1.762443   0.000000
     9  H    2.064673   3.007686   2.553638   0.000000
    10  H    2.053935   2.553638   2.338536   1.762443   0.000000
 Stoichiometry    C2H6O2
 Framework group  C2[X(C2H6O2)]
 Deg. of freedom    13
 Full point group                 C2      NOp   2
 Largest Abelian subgroup         C2      NOp   2
 Largest concise Abelian subgroup C2      NOp   2
                         Standard orientation:                         
 ---------------------------------------------------------------------
 Center     Atomic      Atomic             Coordinates (Angstroms)
 Number     Number       Type             X           Y           Z
 ---------------------------------------------------------------------
      1          6           0       -0.294045    0.696082    0.508405
      2          6           0        0.294045   -0.696082    0.508405
      3          1           0       -0.207627    2.221625   -0.684579
      4          1           0        0.207627   -2.221625   -0.684579
      5          8           0        0.294045    1.434936   -0.527415
      6          8           0       -0.294045   -1.434936   -0.527415
      7          1           0       -1.370308    0.619516    0.382471
      8          1           0       -0.096175    1.165306    1.471004
      9          1           0        1.370308   -0.619516    0.382471
     10          1           0        0.096175   -1.165306    1.471004
 ---------------------------------------------------------------------
 Rotational constants (GHZ):     17.4555870      5.0696201      4.5135708
 Standard basis: 6-31G(d,p) (6D, 7F)
 There are    45 symmetry adapted basis functions of A   symmetry.
 There are    45 symmetry adapted basis functions of B   symmetry.
 Integral buffers will be    131072 words long.
 Raffenetti 2 integral format.
 Two-electron integral symmetry is turned on.
    90 basis functions,   154 primitive gaussians,    90 cartesian basis functions
    17 alpha electrons       17 beta electrons
       nuclear repulsion energy       133.2374910789 Hartrees.
 NAtoms=   10 NActive=   10 NUniq=    5 SFac= 3.00D+00 NAtFMM=   80 NAOKFM=F Big=F
 One-electron integrals computed using PRISM.
 NBasis=    90 RedAO= T  NBF=    45    45
 NBsUse=    90 1.00D-06 NBFU=    45    45
 Projected INDO guess.
 Initial guess orbital symmetries:
       Occupied  (A) (B) (A) (B) (A) (B) (A) (B) (A) (B) (A) (B)
                 (A) (B) (A) (B) (A)
       Virtual   (B) (B) (A) (A) (A) (B) (B) (B) (A) (A) (A) (A)
                 (A) (A) (A) (A) (A) (A) (A) (A) (A) (A) (A) (A)
                 (A) (A) (A) (A) (A) (A) (A) (A) (A) (A) (A) (A)
                 (A) (A) (A) (A) (A) (B) (B) (B) (B) (B) (B) (B)
                 (B) (B) (B) (B) (B) (B) (B) (B) (B) (B) (B) (B)
                 (B) (B) (B) (B) (B) (B) (B) (B) (B) (B) (B) (B)
                 (B)
 The electronic state of the initial guess is 1-A.
 Keep J ints in memory in canonical form, NReq=9445589.
 Gradient too large for Newton-Raphson -- use scaled steepest descent instead.
 Gradient too large for Newton-Raphson -- use scaled steepest descent instead.
 Gradient too large for Newton-Raphson -- use scaled steepest descent instead.
 Gradient too large for Newton-Raphson -- use scaled steepest descent instead.
 Gradient too large for Newton-Raphson -- use scaled steepest descent instead.
 Gradient too large for Newton-Raphson -- use scaled steepest descent instead.
 Gradient too large for Newton-Raphson -- use scaled steepest descent instead.
 LinEq1:  Iter=  0 NonCon=     1 RMS=6.00D-05 Max=6.53D-04
 AX will form     1 AO Fock derivatives at one time.
 LinEq1:  Iter=  1 NonCon=     1 RMS=3.19D-05 Max=2.86D-04
 LinEq1:  Iter=  2 NonCon=     1 RMS=2.63D-06 Max=3.01D-05
 LinEq1:  Iter=  3 NonCon=     1 RMS=1.76D-07 Max=1.27D-06
 LinEq1:  Iter=  4 NonCon=     1 RMS=2.20D-08 Max=1.27D-07
 LinEq1:  Iter=  5 NonCon=     1 RMS=1.61D-08 Max=1.95D-07
 LinEq1:  Iter=  6 NonCon=     0 RMS=2.12D-09 Max=1.46D-08
 Linear equations converged to 4.982D-09 4.982D-08 after     6 iterations.
 LinEq1:  Iter=  0 NonCon=     1 RMS=2.31D-08 Max=3.66D-07
 LinEq1:  Iter=  1 NonCon=     1 RMS=7.15D-09 Max=6.64D-08
 LinEq1:  Iter=  2 NonCon=     1 RMS=3.42D-09 Max=2.85D-08
 LinEq1:  Iter=  3 NonCon=     1 RMS=1.64D-09 Max=1.95D-08
 LinEq1:  Iter=  4 NonCon=     1 RMS=9.10D-10 Max=7.32D-09
 LinEq1:  Iter=  5 NonCon=     1 RMS=2.97D-10 Max=2.53D-09
 LinEq1:  Iter=  6 NonCon=     1 RMS=5.35D-11 Max=3.68D-10
 LinEq1:  Iter=  7 NonCon=     1 RMS=1.06D-11 Max=8.17D-11
 LinEq1:  Iter=  8 NonCon=     0 RMS=2.23D-12 Max=1.73D-11
 Linear equations converged to 9.225D-12 9.225D-11 after     8 iterations.
 LinEq1:  Iter=  0 NonCon=     1 RMS=1.48D-08 Max=2.34D-07
 LinEq1:  Iter=  1 NonCon=     1 RMS=4.58D-09 Max=4.25D-08
 LinEq1:  Iter=  2 NonCon=     1 RMS=2.19D-09 Max=1.83D-08
 LinEq1:  Iter=  3 NonCon=     1 RMS=1.05D-09 Max=1.25D-08
 LinEq1:  Iter=  4 NonCon=     1 RMS=5.83D-10 Max=4.69D-09
 LinEq1:  Iter=  5 NonCon=     1 RMS=1.90D-10 Max=1.62D-09
 LinEq1:  Iter=  6 NonCon=     1 RMS=3.43D-11 Max=2.36D-10
 LinEq1:  Iter=  7 NonCon=     1 RMS=6.79D-12 Max=5.38D-11
 LinEq1:  Iter=  8 NonCon=     0 RMS=1.47D-12 Max=1.14D-11
 Linear equations converged to 5.908D-12 5.908D-11 after     8 iterations.
 SCF Done:  E(RM06L) =  -230.215679918     a.u. after   11 cycles
            Convg  =    0.1095D-10                    57 Fock formations.
              S**2 =  0.0000                  -V/T =  2.0067

 **********************************************************************

            Population analysis using the SCF density.

 **********************************************************************

 Orbital symmetries:
       Occupied  (B) (A) (A) (B) (A) (B) (A) (B) (B) (A) (A) (B)
                 (A) (B) (A) (A) (B)
       Virtual   (A) (B) (A) (B) (A) (B) (B) (B) (A) (A) (B) (A)
                 (B) (A) (B) (A) (B) (A) (B) (A) (B) (A) (B) (A)
                 (B) (A) (A) (B) (B) (B) (A) (A) (B) (B) (A) (A)
                 (B) (A) (A) (B) (B) (A) (B) (A) (A) (B) (B) (A)
                 (B) (B) (A) (B) (A) (B) (A) (B) (A) (A) (B) (B)
                 (A) (A) (B) (A) (B) (A) (B) (A) (B) (B) (A) (A)
                 (B)
 The electronic state is 1-A.
 Alpha  occ. eigenvalues --  -18.97268 -18.97268 -10.09952 -10.09937  -0.99857
 Alpha  occ. eigenvalues --   -0.98356  -0.70412  -0.56877  -0.48653  -0.48167
 Alpha  occ. eigenvalues --   -0.38624  -0.38358  -0.38046  -0.30893  -0.27859
 Alpha  occ. eigenvalues --   -0.22654  -0.22032
 Alpha virt. eigenvalues --    0.08600   0.09440   0.13238   0.15889   0.15916
 Alpha virt. eigenvalues --    0.17553   0.20495   0.22328   0.23358   0.54069
 Alpha virt. eigenvalues --    0.54602   0.56929   0.60552   0.67070   0.68448
 Alpha virt. eigenvalues --    0.75439   0.80153   0.81983   0.82615   0.84476
 Alpha virt. eigenvalues --    0.87756   0.94213   0.98243   0.98267   0.98758
 Alpha virt. eigenvalues --    1.01250   1.14798   1.20593   1.24790   1.31536
 Alpha virt. eigenvalues --    1.38491   1.54493   1.54978   1.58212   1.59209
 Alpha virt. eigenvalues --    1.63876   1.77967   1.87096   1.90579   1.91546
 Alpha virt. eigenvalues --    1.95754   2.00838   2.02789   2.06498   2.10757
 Alpha virt. eigenvalues --    2.12309   2.29135   2.37578   2.38613   2.46659
 Alpha virt. eigenvalues --    2.49611   2.62884   2.64249   2.69475   2.73143
 Alpha virt. eigenvalues --    2.73634   2.79297   2.82046   2.82615   2.96354
 Alpha virt. eigenvalues --    2.97758   3.04157   3.09977   3.35023   3.39278
 Alpha virt. eigenvalues --    3.43518   3.56573   3.57753   3.59288   4.00328
 Alpha virt. eigenvalues --    4.05146   4.46149   4.70040
          Condensed to atoms (all electrons):
              1          2          3          4          5          6
     1  C    4.776336   0.357420  -0.022025   0.006702   0.230664  -0.057848
     2  C    0.357420   4.776336   0.006702  -0.022025  -0.057848   0.230664
     3  H   -0.022025   0.006702   0.400096   0.000026   0.294523  -0.000222
     4  H    0.006702  -0.022025   0.000026   0.400096  -0.000222   0.294523
     5  O    0.230664  -0.057848   0.294523  -0.000222   8.181331   0.004717
     6  O   -0.057848   0.230664  -0.000222   0.294523   0.004717   8.181331
     7  H    0.377079  -0.034874  -0.008115  -0.000161  -0.037982  -0.000914
     8  H    0.373269  -0.048422  -0.002052  -0.000299  -0.044302   0.003503
     9  H   -0.034874   0.377079  -0.000161  -0.008115  -0.000914  -0.037982
    10  H   -0.048422   0.373269  -0.000299  -0.002052   0.003503  -0.044302
              7          8          9         10
     1  C    0.377079   0.373269  -0.034874  -0.048422
     2  C   -0.034874  -0.048422   0.377079   0.373269
     3  H   -0.008115  -0.002052  -0.000161  -0.000299
     4  H   -0.000161  -0.000299  -0.008115  -0.002052
     5  O   -0.037982  -0.044302  -0.000914   0.003503
     6  O   -0.000914   0.003503  -0.037982  -0.044302
     7  H    0.642473  -0.054155   0.007181  -0.002311
     8  H   -0.054155   0.683619  -0.002311   0.002682
     9  H    0.007181  -0.002311   0.642473  -0.054155
    10  H   -0.002311   0.002682  -0.054155   0.683619
 Mulliken atomic charges:
              1
     1  C    0.041698
     2  C    0.041698
     3  H    0.331527
     4  H    0.331527
     5  O   -0.573470
     6  O   -0.573470
     7  H    0.111777
     8  H    0.088468
     9  H    0.111777
    10  H    0.088468
 Sum of Mulliken atomic charges =   0.00000
 Mulliken charges with hydrogens summed into heavy atoms:
              1
     1  C    0.241943
     2  C    0.241943
     5  O   -0.241943
     6  O   -0.241943
 Sum of Mulliken charges with hydrogens summed into heavy atoms =   0.00000
 Electronic spatial extent (au):  <R**2>=            305.6653
 Charge=              0.0000 electrons
 Dipole moment (field-independent basis, Debye):
    X=              0.0000    Y=              0.0000    Z=              1.1154  Tot=              1.1154
 Quadrupole moment (field-independent basis, Debye-Ang):
   XX=            -25.0936   YY=            -17.4351   ZZ=            -25.1492
   XY=             -4.8525   XZ=              0.0000   YZ=              0.0000
 Traceless Quadrupole moment (field-independent basis, Debye-Ang):
   XX=             -2.5343   YY=              5.1242   ZZ=             -2.5899
   XY=             -4.8525   XZ=              0.0000   YZ=              0.0000
 Octapole moment (field-independent basis, Debye-Ang**2):
  XXX=              0.0000  YYY=              0.0000  ZZZ=             -4.2528  XYY=              0.0000
  XXY=              0.0000  XXZ=             -1.4002  XZZ=              0.0000  YZZ=              0.0000
  YYZ=             -8.1723  XYZ=              2.8390
 Hexadecapole moment (field-independent basis, Debye-Ang**3):
 XXXX=            -48.5764 YYYY=           -158.7411 ZZZZ=            -79.6189 XXXY=             -3.8536
 XXXZ=              0.0000 YYYX=            -18.4250 YYYZ=              0.0000 ZZZX=              0.0000
 ZZZY=              0.0000 XXYY=            -47.9281 XXZZ=            -22.2181 YYZZ=            -44.8772
 XXYZ=              0.0000 YYXZ=              0.0000 ZZXY=             -1.6701
 N-N= 1.332374910789D+02 E-N=-8.067617078694D+02  KE= 2.286796170362D+02
 Symmetry A    KE= 1.154975310950D+02
 Symmetry B    KE= 1.131820859413D+02
 1\1\GINC-NODE7\SP\RM06L\6-31G(d,p)\C2H6O2\WUCH\03-Sep-2010\0\\#M06L/6-
 31G** SP SCF=(qc,maxcycle=800) Guess=Indo MaxDisk=64GB\\12-ethanediol 
 Rotatable Bond SP Calculation on node7.bme.utexas.edu\\0,1\C,0,-0.2940
 45,0.696082,0.508405\C,0,0.294045,-0.696082,0.508405\H,0,-0.207627,2.2
 21625,-0.684579\H,0,0.207627,-2.221625,-0.684579\O,0,0.294045,1.434936
 ,-0.527415\O,0,-0.294045,-1.434936,-0.527415\H,0,-1.370308,0.619516,0.
 382471\H,0,-0.096175,1.165306,1.471004\H,0,1.370308,-0.619516,0.382471
 \H,0,0.096175,-1.165306,1.471004\\Version=EM64L-G09RevA.02\State=1-A\H
 F=-230.2156799\RMSD=0.000e+00\Dipole=0.,0.,0.4388455\Quadrupole=-1.884
 2101,3.8097365,-1.9255265,-3.6077191,0.,0.\PG=C02 [X(C2H6O2)]\\@


 At the touch of love, everyone becomves a poet.
                                -- Plato
 Job cpu time:  0 days  0 hours  7 minutes 15.0 seconds.
 File lengths (MBytes):  RWF=      5 Int=      0 D2E=      0 Chk=      1 Scr=      1
 Normal termination of Gaussian 09 at Fri Sep  3 18:56:49 2010.
