 Entering Gaussian System, Link 0=/opt/g09/gaussian/g09/bin/g09
 Input=12-ethanediol-opt-5-1-2-6-253.com
 Output=12-ethanediol-opt-5-1-2-6-253.log
 Initial command:
 /opt/g09/gaussian/g09/bin/l1.exe /scratch/Gau-12-ethanediol/Gau-29440.inp -scrdir=/scratch/Gau-12-ethanediol/
 Entering Link 1 = /opt/g09/gaussian/g09/bin/l1.exe PID=     29441.
  
 Copyright (c) 1988,1990,1992,1993,1995,1998,2003,2009, Gaussian, Inc.
                  All Rights Reserved.
  
 This is part of the Gaussian(R) 09 program.  It is based on
 the Gaussian(R) 03 system (copyright 2003, Gaussian, Inc.),
 the Gaussian(R) 98 system (copyright 1998, Gaussian, Inc.),
 the Gaussian(R) 94 system (copyright 1995, Gaussian, Inc.),
 the Gaussian 92(TM) system (copyright 1992, Gaussian, Inc.),
 the Gaussian 90(TM) system (copyright 1990, Gaussian, Inc.),
 the Gaussian 88(TM) system (copyright 1988, Gaussian, Inc.),
 the Gaussian 86(TM) system (copyright 1986, Carnegie Mellon
 University), and the Gaussian 82(TM) system (copyright 1983,
 Carnegie Mellon University). Gaussian is a federally registered
 trademark of Gaussian, Inc.
  
 This software contains proprietary and confidential information,
 including trade secrets, belonging to Gaussian, Inc.
  
 This software is provided under written license and may be
 used, copied, transmitted, or stored only in accord with that
 written license.
  
 The following legend is applicable only to US Government
 contracts under FAR:
  
                    RESTRICTED RIGHTS LEGEND
  
 Use, reproduction and disclosure by the US Government is
 subject to restrictions as set forth in subparagraphs (a)
 and (c) of the Commercial Computer Software - Restricted
 Rights clause in FAR 52.227-19.
  
 Gaussian, Inc.
 340 Quinnipiac St., Bldg. 40, Wallingford CT 06492
  
  
 ---------------------------------------------------------------
 Warning -- This program may not be used in any manner that
 competes with the business of Gaussian, Inc. or will provide
 assistance to any competitor of Gaussian, Inc.  The licensee
 of this program is prohibited from giving any competitor of
 Gaussian, Inc. access to this program.  By using this program,
 the user acknowledges that Gaussian, Inc. is engaged in the
 business of creating and licensing software in the field of
 computational chemistry and represents and warrants to the
 licensee that it is not a competitor of Gaussian, Inc. and that
 it will not use this program in any manner prohibited above.
 ---------------------------------------------------------------
  

 Cite this work as:
 Gaussian 09, Revision A.02,
 M. J. Frisch, G. W. Trucks, H. B. Schlegel, G. E. Scuseria, 
 M. A. Robb, J. R. Cheeseman, G. Scalmani, V. Barone, B. Mennucci, 
 G. A. Petersson, H. Nakatsuji, M. Caricato, X. Li, H. P. Hratchian, 
 A. F. Izmaylov, J. Bloino, G. Zheng, J. L. Sonnenberg, M. Hada, 
 M. Ehara, K. Toyota, R. Fukuda, J. Hasegawa, M. Ishida, T. Nakajima, 
 Y. Honda, O. Kitao, H. Nakai, T. Vreven, J. A. Montgomery, Jr., 
 J. E. Peralta, F. Ogliaro, M. Bearpark, J. J. Heyd, E. Brothers, 
 K. N. Kudin, V. N. Staroverov, R. Kobayashi, J. Normand, 
 K. Raghavachari, A. Rendell, J. C. Burant, S. S. Iyengar, J. Tomasi, 
 M. Cossi, N. Rega, J. M. Millam, M. Klene, J. E. Knox, J. B. Cross, 
 V. Bakken, C. Adamo, J. Jaramillo, R. Gomperts, R. E. Stratmann, 
 O. Yazyev, A. J. Austin, R. Cammi, C. Pomelli, J. W. Ochterski, 
 R. L. Martin, K. Morokuma, V. G. Zakrzewski, G. A. Voth, 
 P. Salvador, J. J. Dannenberg, S. Dapprich, A. D. Daniels, 
 O. Farkas, J. B. Foresman, J. V. Ortiz, J. Cioslowski, 
 and D. J. Fox, Gaussian, Inc., Wallingford CT, 2009.
 
 ******************************************
 Gaussian 09:  EM64L-G09RevA.02 11-Jun-2009
                 3-Sep-2010 
 ******************************************
 %RWF=/scratch/Gau-12-ethanediol/,64GB
 %Chk=12-ethanediol-opt-5-1-2-6-253.chk
 %Mem=778484KB
 %Nproc=1
 Will use up to    1 processors via shared memory.
 ----------------------------------
 #HF/6-31G* Opt=ModRed MaxDisk=64GB
 ----------------------------------
 1/18=120,19=15,38=1/1,3;
 2/9=110,12=2,17=6,18=5,40=1/2;
 3/5=1,6=6,7=1,11=9,16=1,25=1,30=1,71=1/1,2,3;
 4//1;
 5/5=2,38=5/2;
 6/7=2,8=2,9=2,10=2,28=1/1;
 7//1,2,3,16;
 1/18=20,19=15/3(2);
 2/9=110/2;
 99//99;
 2/9=110/2;
 3/5=1,6=6,7=1,11=9,16=1,25=1,30=1,71=1/1,2,3;
 4/5=5,16=3/1;
 5/5=2,38=5/2;
 7//1,2,3,16;
 1/18=20,19=15/3(-5);
 2/9=110/2;
 6/7=2,8=2,9=2,10=2,19=2,28=1/1;
 99/9=1/99;
 -----------------------------------------------------------------
 12-ethanediol Rotatable Bond Optimization on node7.bme.utexas.edu
 -----------------------------------------------------------------
 Symbolic Z-matrix:
 Charge =  0 Multiplicity = 1
 C                    -0.29405   0.69608   0.50841 
 C                     0.29405  -0.69608   0.50841 
 H                    -0.20763   2.22162  -0.68458 
 H                     0.20763  -2.22162  -0.68458 
 O                     0.29405   1.43494  -0.52742 
 O                    -0.29405  -1.43494  -0.52742 
 H                    -1.37031   0.61952   0.38247 
 H                    -0.09618   1.16531   1.471 
 H                     1.37031  -0.61952   0.38247 
 H                     0.09618  -1.16531   1.471 
 
 The following ModRedundant input section has been read:
 D    5    1    2    6 252.64 F                                                
 Iteration  1 RMS(Cart)=  0.02406590 RMS(Int)=  0.07460918
 Iteration  2 RMS(Cart)=  0.00927652 RMS(Int)=  0.07178872
 Iteration  3 RMS(Cart)=  0.00342859 RMS(Int)=  0.07090864
 Iteration  4 RMS(Cart)=  0.00126984 RMS(Int)=  0.07060648
 Iteration  5 RMS(Cart)=  0.00047002 RMS(Int)=  0.07049795
 Iteration  6 RMS(Cart)=  0.00017393 RMS(Int)=  0.07045824
 Iteration  7 RMS(Cart)=  0.00006435 RMS(Int)=  0.07044362
 Iteration  8 RMS(Cart)=  0.00002381 RMS(Int)=  0.07043821
 Iteration  9 RMS(Cart)=  0.00000881 RMS(Int)=  0.07043622
 Iteration 10 RMS(Cart)=  0.00000326 RMS(Int)=  0.07043548
 Iteration 11 RMS(Cart)=  0.00000121 RMS(Int)=  0.07043520
 Iteration 12 RMS(Cart)=  0.00000045 RMS(Int)=  0.07043510
 Iteration  1 RMS(Cart)=  0.02448139 RMS(Int)=  0.05614654
 Iteration  2 RMS(Cart)=  0.02475635 RMS(Int)=  0.05234315
 Iteration  3 RMS(Cart)=  0.02501917 RMS(Int)=  0.05572069
 Iteration  4 RMS(Cart)=  0.02334367 RMS(Int)=  0.06427735
 Iteration  5 RMS(Cart)=  0.01487372 RMS(Int)=  0.07155648
 Iteration  6 RMS(Cart)=  0.00944758 RMS(Int)=  0.07668549
 Iteration  7 RMS(Cart)=  0.00599133 RMS(Int)=  0.08009628
 Iteration  8 RMS(Cart)=  0.00379617 RMS(Int)=  0.08231155
 Iteration  9 RMS(Cart)=  0.00240410 RMS(Int)=  0.08373412
 Iteration 10 RMS(Cart)=  0.00152207 RMS(Int)=  0.08464216
 Iteration 11 RMS(Cart)=  0.00096347 RMS(Int)=  0.08521980
 Iteration 12 RMS(Cart)=  0.00060981 RMS(Int)=  0.08558652
 Iteration 13 RMS(Cart)=  0.00038595 RMS(Int)=  0.08581905
 Iteration 14 RMS(Cart)=  0.00024425 RMS(Int)=  0.08596639
 Iteration 15 RMS(Cart)=  0.00015457 RMS(Int)=  0.08605970
 Iteration 16 RMS(Cart)=  0.00009782 RMS(Int)=  0.08611877
 Iteration 17 RMS(Cart)=  0.00006190 RMS(Int)=  0.08615617
 Iteration 18 RMS(Cart)=  0.00003917 RMS(Int)=  0.08617984
 Iteration 19 RMS(Cart)=  0.00002479 RMS(Int)=  0.08619482
 Iteration 20 RMS(Cart)=  0.00001569 RMS(Int)=  0.08620431
 Iteration 21 RMS(Cart)=  0.00000993 RMS(Int)=  0.08621031
 Iteration 22 RMS(Cart)=  0.00000628 RMS(Int)=  0.08621410
 Iteration 23 RMS(Cart)=  0.00000398 RMS(Int)=  0.08621651
 Iteration 24 RMS(Cart)=  0.00000252 RMS(Int)=  0.08621803
 Iteration 25 RMS(Cart)=  0.00000159 RMS(Int)=  0.08621899
 Iteration 26 RMS(Cart)=  0.00000101 RMS(Int)=  0.08621960
 Iteration 27 RMS(Cart)=  0.00000064 RMS(Int)=  0.08621998

 GradGradGradGradGradGradGradGradGradGradGradGradGradGradGradGradGradGrad
 Berny optimization.
 Initialization pass.
                           ----------------------------
                           !    Initial Parameters    !
                           ! (Angstroms and Degrees)  !
 --------------------------                            --------------------------
 ! Name  Definition              Value          Derivative Info.                !
 --------------------------------------------------------------------------------
 ! R1    R(1,2)                  1.5119         estimate D2E/DX2                !
 ! R2    R(1,5)                  1.4051         estimate D2E/DX2                !
 ! R3    R(1,7)                  1.0865         estimate D2E/DX2                !
 ! R4    R(1,8)                  1.089          estimate D2E/DX2                !
 ! R5    R(2,6)                  1.4051         estimate D2E/DX2                !
 ! R6    R(2,9)                  1.0865         estimate D2E/DX2                !
 ! R7    R(2,10)                 1.089          estimate D2E/DX2                !
 ! R8    R(3,5)                  0.9463         estimate D2E/DX2                !
 ! R9    R(4,6)                  0.9463         estimate D2E/DX2                !
 ! A1    A(2,1,5)              108.6357         estimate D2E/DX2                !
 ! A2    A(2,1,7)              110.9094         estimate D2E/DX2                !
 ! A3    A(2,1,8)              106.182          estimate D2E/DX2                !
 ! A4    A(5,1,7)              122.5615         estimate D2E/DX2                !
 ! A5    A(5,1,8)               98.3694         estimate D2E/DX2                !
 ! A6    A(7,1,8)              108.4279         estimate D2E/DX2                !
 ! A7    A(1,2,6)              108.6357         estimate D2E/DX2                !
 ! A8    A(1,2,9)              110.9094         estimate D2E/DX2                !
 ! A9    A(1,2,10)             106.182          estimate D2E/DX2                !
 ! A10   A(6,2,9)              122.5615         estimate D2E/DX2                !
 ! A11   A(6,2,10)              98.3694         estimate D2E/DX2                !
 ! A12   A(9,2,10)             108.4279         estimate D2E/DX2                !
 ! A13   A(1,5,3)              109.8072         estimate D2E/DX2                !
 ! A14   A(2,6,4)              109.8072         estimate D2E/DX2                !
 ! D1    D(5,1,2,6)           -107.3598         Frozen                          !
 ! D2    D(5,1,2,9)             30.1052         estimate D2E/DX2                !
 ! D3    D(5,1,2,10)           147.7003         estimate D2E/DX2                !
 ! D4    D(7,1,2,6)             30.1052         estimate D2E/DX2                !
 ! D5    D(7,1,2,9)            167.5701         estimate D2E/DX2                !
 ! D6    D(7,1,2,10)           -74.8347         estimate D2E/DX2                !
 ! D7    D(8,1,2,6)            147.7003         estimate D2E/DX2                !
 ! D8    D(8,1,2,9)            -74.8347         estimate D2E/DX2                !
 ! D9    D(8,1,2,10)            42.7604         estimate D2E/DX2                !
 ! D10   D(2,1,5,3)            172.6337         estimate D2E/DX2                !
 ! D11   D(7,1,5,3)             41.1634         estimate D2E/DX2                !
 ! D12   D(8,1,5,3)            -77.0691         estimate D2E/DX2                !
 ! D13   D(1,2,6,4)            172.6337         estimate D2E/DX2                !
 ! D14   D(9,2,6,4)             41.1634         estimate D2E/DX2                !
 ! D15   D(10,2,6,4)           -77.0691         estimate D2E/DX2                !
 --------------------------------------------------------------------------------
 Trust Radius=3.00D-01 FncErr=1.00D-07 GrdErr=1.00D-07
 Number of steps in this run=  48 maximum allowed number of steps= 100.
 GradGradGradGradGradGradGradGradGradGradGradGradGradGradGradGradGradGrad

                          Input orientation:                          
 ---------------------------------------------------------------------
 Center     Atomic      Atomic             Coordinates (Angstroms)
 Number     Number       Type             X           Y           Z
 ---------------------------------------------------------------------
      1          6           0       -0.358626    0.665452    0.393576
      2          6           0        0.358626   -0.665452    0.393576
      3          1           0       -0.116970    2.372610   -0.499851
      4          1           0        0.116970   -2.372610   -0.499851
      5          8           0        0.372717    1.569638   -0.395024
      6          8           0       -0.372717   -1.569638   -0.395024
      7          1           0       -1.430765    0.528129    0.283703
      8          1           0       -0.166968    1.113509    1.367481
      9          1           0        1.430765   -0.528129    0.283703
     10          1           0        0.166968   -1.113509    1.367481
 ---------------------------------------------------------------------
                    Distance matrix (angstroms):
                    1          2          3          4          5
     1  C    0.000000
     2  C    1.511871   0.000000
     3  H    1.941906   3.202222   0.000000
     4  H    3.202222   1.941906   4.750984   0.000000
     5  O    1.405100   2.370172   0.946333   3.951926   0.000000
     6  O    2.370172   1.405100   3.951926   0.946333   3.226566
     7  H    1.086468   2.153747   2.396273   3.379901   2.190424
     8  H    1.089026   2.095099   2.252724   3.964918   1.898878
     9  H    2.153747   1.086468   3.379901   2.396273   2.445560
    10  H    2.095099   1.089026   3.964918   2.252724   3.216836
                    6          7          8          9         10
     6  O    0.000000
     7  H    2.445560   0.000000
     8  H    3.216836   1.764774   0.000000
     9  H    2.190424   3.050251   2.534225   0.000000
    10  H    1.898878   2.534225   2.251915   1.764774   0.000000
 Stoichiometry    C2H6O2
 Framework group  C1[X(C2H6O2)]
 Deg. of freedom    24
 Full point group                 C1      NOp   1
 Largest Abelian subgroup         C1      NOp   1
 Largest concise Abelian subgroup C1      NOp   1
                         Standard orientation:                         
 ---------------------------------------------------------------------
 Center     Atomic      Atomic             Coordinates (Angstroms)
 Number     Number       Type             X           Y           Z
 ---------------------------------------------------------------------
      1          6           0        0.635162    0.372835   -0.409887
      2          6           0       -0.635162    0.372835    0.409887
      3          1           0        2.356045   -0.520592   -0.303342
      4          1           0       -2.356045   -0.520592    0.303341
      5          8           0        1.594103   -0.415765    0.248024
      6          8           0       -1.594103   -0.415765   -0.248024
      7          1           0        0.413884    0.262962   -1.467893
      8          1           0        1.096914    1.346740   -0.254087
      9          1           0       -0.413884    0.262961    1.467893
     10          1           0       -1.096914    1.346740    0.254088
 ---------------------------------------------------------------------
 Rotational constants (GHZ):     21.3379413      4.3720963      4.2766333
 Standard basis: 6-31G(d) (6D, 7F)
 There are    72 symmetry adapted basis functions of A   symmetry.
 Integral buffers will be    131072 words long.
 Raffenetti 1 integral format.
 Two-electron integral symmetry is turned on.
    72 basis functions,   136 primitive gaussians,    72 cartesian basis functions
    17 alpha electrons       17 beta electrons
       nuclear repulsion energy       132.1299394370 Hartrees.
 NAtoms=   10 NActive=   10 NUniq=   10 SFac= 7.50D-01 NAtFMM=   80 NAOKFM=F Big=F
 One-electron integrals computed using PRISM.
 NBasis=    72 RedAO= T  NBF=    72
 NBsUse=    72 1.00D-06 NBFU=    72
 Harris functional with IExCor=  205 diagonalized for initial guess.
 ExpMin= 1.61D-01 ExpMax= 5.48D+03 ExpMxC= 8.25D+02 IAcc=1 IRadAn=         1 AccDes= 0.00D+00
 HarFok:  IExCor=  205 AccDes= 0.00D+00 IRadAn=         1 IDoV= 1
 ScaDFX=  1.000000  1.000000  1.000000  1.000000
 FoFCou: FMM=F IPFlag=           0 FMFlag=      100000 FMFlg1=           0
         NFxFlg=           0 DoJE=T BraDBF=F KetDBF=T FulRan=T
         Omega=  0.000000  0.000000  1.000000  0.000000  0.000000 ICntrl=     500 IOpCl=  0
         NMat0=    1 NMatS0=    1 NMatT0=    0 NMatD0=    1 NMtDS0=    0 NMtDT0=    0
         I1Cent=           4 NGrid=           0.
 Petite list used in FoFCou.
 Initial guess orbital symmetries:
       Occupied  (A) (A) (A) (A) (A) (A) (A) (A) (A) (A) (A) (A)
                 (A) (A) (A) (A) (A)
       Virtual   (A) (A) (A) (A) (A) (A) (A) (A) (A) (A) (A) (A)
                 (A) (A) (A) (A) (A) (A) (A) (A) (A) (A) (A) (A)
                 (A) (A) (A) (A) (A) (A) (A) (A) (A) (A) (A) (A)
                 (A) (A) (A) (A) (A) (A) (A) (A) (A) (A) (A) (A)
                 (A) (A) (A) (A) (A) (A) (A)
 The electronic state of the initial guess is 1-A.
 Requested convergence on RMS density matrix=1.00D-08 within 128 cycles.
 Requested convergence on MAX density matrix=1.00D-06.
 Requested convergence on             energy=1.00D-06.
 No special actions if energy rises.
 Keep R1 ints in memory in canonical form, NReq=4309202.
 SCF Done:  E(RHF) =  -228.895953001     A.U. after   11 cycles
             Convg  =    0.9098D-08             -V/T =  2.0012

 **********************************************************************

            Population analysis using the SCF density.

 **********************************************************************

 Orbital symmetries:
       Occupied  (A) (A) (A) (A) (A) (A) (A) (A) (A) (A) (A) (A)
                 (A) (A) (A) (A) (A)
       Virtual   (A) (A) (A) (A) (A) (A) (A) (A) (A) (A) (A) (A)
                 (A) (A) (A) (A) (A) (A) (A) (A) (A) (A) (A) (A)
                 (A) (A) (A) (A) (A) (A) (A) (A) (A) (A) (A) (A)
                 (A) (A) (A) (A) (A) (A) (A) (A) (A) (A) (A) (A)
                 (A) (A) (A) (A) (A) (A) (A)
 The electronic state is 1-A.
 Alpha  occ. eigenvalues --  -20.55342 -20.55342 -11.26869 -11.26804  -1.36984
 Alpha  occ. eigenvalues --   -1.35402  -1.00142  -0.83039  -0.72540  -0.69561
 Alpha  occ. eigenvalues --   -0.61892  -0.59292  -0.58702  -0.52665  -0.48356
 Alpha  occ. eigenvalues --   -0.43659  -0.42426
 Alpha virt. eigenvalues --    0.22362   0.23575   0.29033   0.30665   0.31000
 Alpha virt. eigenvalues --    0.33890   0.40075   0.41213   0.44253   0.75602
 Alpha virt. eigenvalues --    0.80646   0.81688   0.82440   0.91122   0.93544
 Alpha virt. eigenvalues --    1.06184   1.12132   1.12918   1.12965   1.17991
 Alpha virt. eigenvalues --    1.19344   1.21954   1.24366   1.28501   1.29286
 Alpha virt. eigenvalues --    1.31859   1.47612   1.48345   1.52219   1.71063
 Alpha virt. eigenvalues --    1.74577   1.82967   1.89609   1.99230   2.04786
 Alpha virt. eigenvalues --    2.05455   2.16905   2.23562   2.29770   2.38032
 Alpha virt. eigenvalues --    2.50908   2.52979   2.65593   2.71273   2.75197
 Alpha virt. eigenvalues --    2.76760   2.89198   2.98477   3.01786   3.21952
 Alpha virt. eigenvalues --    3.23907   4.10912   4.25021   4.62879   4.86838
          Condensed to atoms (all electrons):
              1          2          3          4          5          6
     1  C    4.825976   0.349448  -0.021068   0.006068   0.195915  -0.050653
     2  C    0.349448   4.825976   0.006068  -0.021068  -0.050653   0.195915
     3  H   -0.021068   0.006068   0.322592   0.000011   0.260652  -0.000152
     4  H    0.006068  -0.021068   0.000011   0.322592  -0.000152   0.260652
     5  O    0.195915  -0.050653   0.260652  -0.000152   8.420416   0.001564
     6  O   -0.050653   0.195915  -0.000152   0.260652   0.001564   8.420416
     7  H    0.379086  -0.036342  -0.004400  -0.000054  -0.021955   0.000827
     8  H    0.417945  -0.055185  -0.001474  -0.000272  -0.067437   0.003357
     9  H   -0.036342   0.379086  -0.000054  -0.004400   0.000827  -0.021955
    10  H   -0.055185   0.417945  -0.000272  -0.001474   0.003357  -0.067437
              7          8          9         10
     1  C    0.379086   0.417945  -0.036342  -0.055185
     2  C   -0.036342  -0.055185   0.379086   0.417945
     3  H   -0.004400  -0.001474  -0.000054  -0.000272
     4  H   -0.000054  -0.000272  -0.004400  -0.001474
     5  O   -0.021955  -0.067437   0.000827   0.003357
     6  O    0.000827   0.003357  -0.021955  -0.067437
     7  H    0.541152  -0.040469   0.004128   0.000555
     8  H   -0.040469   0.605095   0.000555  -0.000270
     9  H    0.004128   0.000555   0.541152  -0.040469
    10  H    0.000555  -0.000270  -0.040469   0.605095
 Mulliken atomic charges:
              1
     1  C   -0.011190
     2  C   -0.011190
     3  H    0.438097
     4  H    0.438097
     5  O   -0.742533
     6  O   -0.742533
     7  H    0.177471
     8  H    0.138155
     9  H    0.177471
    10  H    0.138155
 Sum of Mulliken atomic charges =   0.00000
 Mulliken charges with hydrogens summed into heavy atoms:
              1
     1  C    0.304436
     2  C    0.304436
     5  O   -0.304436
     6  O   -0.304436
 Sum of Mulliken charges with hydrogens summed into heavy atoms =   0.00000
 Electronic spatial extent (au):  <R**2>=            321.8232
 Charge=              0.0000 electrons
 Dipole moment (field-independent basis, Debye):
    X=              0.0000    Y=              1.2509    Z=              0.0000  Tot=              1.2509
 Quadrupole moment (field-independent basis, Debye-Ang):
   XX=            -18.8346   YY=            -26.0547   ZZ=            -24.2981
   XY=              0.0000   XZ=             -6.2494   YZ=              0.0000
 Traceless Quadrupole moment (field-independent basis, Debye-Ang):
   XX=              4.2279   YY=             -2.9922   ZZ=             -1.2356
   XY=              0.0000   XZ=             -6.2494   YZ=              0.0000
 Octapole moment (field-independent basis, Debye-Ang**2):
  XXX=              0.0000  YYY=             -2.6640  ZZZ=              0.0000  XYY=              0.0000
  XXY=             -5.2322  XXZ=              0.0000  XZZ=              0.0000  YZZ=             -0.9143
  YYZ=              0.0000  XYZ=              2.9567
 Hexadecapole moment (field-independent basis, Debye-Ang**3):
 XXXX=           -176.0753 YYYY=            -62.5476 ZZZZ=            -52.5652 XXXY=              0.0000
 XXXZ=            -25.3614 YYYX=              0.0000 YYYZ=              0.0000 ZZZX=             -1.2630
 ZZZY=              0.0000 XXYY=            -50.7193 XXZZ=            -52.7338 YYZZ=            -20.1520
 XXYZ=              0.0000 YYXZ=             -0.7906 ZZXY=              0.0000
 N-N= 1.321299394370D+02 E-N=-8.040890687018D+02  KE= 2.286176265380D+02
 Calling FoFJK, ICntrl=      2127 FMM=F ISym2X=0 I1Cent= 0 IOpClX= 0 NMat=1 NMatS=1 NMatT=0.
 ***** Axes restored to original set *****
 -------------------------------------------------------------------
 Center     Atomic                   Forces (Hartrees/Bohr)
 Number     Number              X              Y              Z
 -------------------------------------------------------------------
      1        6           0.039491136    0.015919084    0.037902649
      2        6          -0.039491115   -0.015919088    0.037902662
      3        1           0.000383470    0.001039936   -0.000718663
      4        1          -0.000383476   -0.001039926   -0.000718662
      5        8          -0.015595080   -0.000490283   -0.032773383
      6        8           0.015595073    0.000490276   -0.032773391
      7        1           0.003943851    0.006657568   -0.016510044
      8        1          -0.016276083   -0.013228549    0.012099434
      9        1          -0.003943859   -0.006657568   -0.016510040
     10        1           0.016276083    0.013228550    0.012099436
 -------------------------------------------------------------------
 Cartesian Forces:  Max     0.039491136 RMS     0.019126987

 GradGradGradGradGradGradGradGradGradGradGradGradGradGradGradGradGradGrad
 Berny optimization.
 Internal  Forces:  Max     0.032121282 RMS     0.010932728
 Search for a local minimum.
 Step number   1 out of a maximum of   48
 All quantities printed in internal units (Hartrees-Bohrs-Radians)
 Mixed Optimization -- RFO/linear search
 Second derivative matrix not updated -- first step.
     Eigenvalues ---    0.01624   0.01624   0.01986   0.04704   0.06197
     Eigenvalues ---    0.06652   0.11261   0.11277   0.13556   0.13893
     Eigenvalues ---    0.16000   0.16000   0.21993   0.21998   0.31163
     Eigenvalues ---    0.34925   0.34925   0.35224   0.35224   0.44786
     Eigenvalues ---    0.44786   0.58520   0.585201000.000001000.00000
     Eigenvalues --- 1000.000001000.000001000.000001000.000001000.00000
     Eigenvalues --- 1000.000001000.000001000.000001000.000001000.00000
     Eigenvalues --- 1000.000001000.000001000.00000
 RFO step:  Lambda=-2.41357439D-02 EMin= 1.62432247D-02
 Linear search not attempted -- first point.
 Maximum step size (   0.300) exceeded in Quadratic search.
    -- Step size scaled by   0.437
 Iteration  1 RMS(Cart)=  0.03769481 RMS(Int)=  0.00123096
 Iteration  2 RMS(Cart)=  0.00117067 RMS(Int)=  0.00030422
 Iteration  3 RMS(Cart)=  0.00000071 RMS(Int)=  0.00030422
 Iteration  1 RMS(Cart)=  0.00001136 RMS(Int)=  0.00001130
 Iteration  2 RMS(Cart)=  0.00000717 RMS(Int)=  0.00001254
 Iteration  3 RMS(Cart)=  0.00000453 RMS(Int)=  0.00001438
 Iteration  4 RMS(Cart)=  0.00000286 RMS(Int)=  0.00001581
 Iteration  5 RMS(Cart)=  0.00000180 RMS(Int)=  0.00001680
 Iteration  6 RMS(Cart)=  0.00000114 RMS(Int)=  0.00001745
 Iteration  7 RMS(Cart)=  0.00000072 RMS(Int)=  0.00001787
 Variable       Old X    -DE/DX   Delta X   Delta X   Delta X     New X
                                 (Linear)    (Quad)   (Total)
    R1        2.85702   0.00305   0.00000   0.00396   0.00396   2.86098
    R2        2.65525   0.01123   0.00000   0.01039   0.01039   2.66564
    R3        2.05313  -0.00306   0.00000  -0.00355  -0.00355   2.04957
    R4        2.05796   0.00251   0.00000   0.00294   0.00294   2.06090
    R5        2.65525   0.01123   0.00000   0.01039   0.01039   2.66564
    R6        2.05313  -0.00306   0.00000  -0.00355  -0.00355   2.04957
    R7        2.05796   0.00251   0.00000   0.00294   0.00294   2.06090
    R8        1.78831   0.00076   0.00000   0.00055   0.00055   1.78886
    R9        1.78831   0.00076   0.00000   0.00055   0.00055   1.78886
    A1        1.89605   0.00587   0.00000   0.00996   0.00954   1.90559
    A2        1.93573   0.00175   0.00000  -0.00211  -0.00251   1.93322
    A3        1.85323  -0.00338   0.00000  -0.00471  -0.00523   1.84800
    A4        2.13910  -0.02053   0.00000  -0.04524  -0.04521   2.09389
    A5        1.71687   0.02151   0.00000   0.05829   0.05827   1.77514
    A6        1.89242  -0.00183   0.00000  -0.00607  -0.00568   1.88674
    A7        1.89605   0.00587   0.00000   0.00996   0.00954   1.90559
    A8        1.93573   0.00175   0.00000  -0.00211  -0.00251   1.93322
    A9        1.85323  -0.00338   0.00000  -0.00471  -0.00523   1.84800
   A10        2.13910  -0.02053   0.00000  -0.04524  -0.04521   2.09389
   A11        1.71687   0.02151   0.00000   0.05829   0.05827   1.77514
   A12        1.89242  -0.00183   0.00000  -0.00607  -0.00568   1.88674
   A13        1.91650   0.00193   0.00000   0.00457   0.00457   1.92106
   A14        1.91650   0.00193   0.00000   0.00457   0.00457   1.92106
    D1       -1.87378   0.03212   0.00000   0.00000   0.00000  -1.87378
    D2        0.52543   0.01029   0.00000  -0.05636  -0.05639   0.46904
    D3        2.57786   0.00706   0.00000  -0.06746  -0.06747   2.51039
    D4        0.52543   0.01029   0.00000  -0.05636  -0.05639   0.46904
    D5        2.92465  -0.01155   0.00000  -0.11272  -0.11279   2.81186
    D6       -1.30611  -0.01477   0.00000  -0.12383  -0.12387  -1.42998
    D7        2.57786   0.00706   0.00000  -0.06746  -0.06747   2.51039
    D8       -1.30611  -0.01477   0.00000  -0.12383  -0.12387  -1.42998
    D9        0.74631  -0.01799   0.00000  -0.13493  -0.13494   0.61137
   D10        3.01303  -0.00609   0.00000  -0.02009  -0.02017   2.99285
   D11        0.71844   0.00524   0.00000   0.01764   0.01697   0.73541
   D12       -1.34511   0.00078   0.00000   0.00169   0.00244  -1.34267
   D13        3.01303  -0.00609   0.00000  -0.02009  -0.02017   2.99285
   D14        0.71844   0.00524   0.00000   0.01764   0.01697   0.73541
   D15       -1.34511   0.00078   0.00000   0.00169   0.00244  -1.34267
         Item               Value     Threshold  Converged?
 Maximum Force            0.016908     0.000450     NO 
 RMS     Force            0.006842     0.000300     NO 
 Maximum Displacement     0.090610     0.001800     NO 
 RMS     Displacement     0.037686     0.001200     NO 
 Predicted change in Energy=-9.315819D-03
 GradGradGradGradGradGradGradGradGradGradGradGradGradGradGradGradGradGrad

                          Input orientation:                          
 ---------------------------------------------------------------------
 Center     Atomic      Atomic             Coordinates (Angstroms)
 Number     Number       Type             X           Y           Z
 ---------------------------------------------------------------------
      1          6           0       -0.352793    0.669747    0.402194
      2          6           0        0.352793   -0.669747    0.402194
      3          1           0       -0.112168    2.379665   -0.503664
      4          1           0        0.112168   -2.379665   -0.503664
      5          8           0        0.380939    1.580097   -0.386912
      6          8           0       -0.380939   -1.580097   -0.386912
      7          1           0       -1.417099    0.543735    0.235754
      8          1           0       -0.212590    1.080929    1.402514
      9          1           0        1.417099   -0.543735    0.235754
     10          1           0        0.212590   -1.080929    1.402514
 ---------------------------------------------------------------------
                    Distance matrix (angstroms):
                    1          2          3          4          5
     1  C    0.000000
     2  C    1.513966   0.000000
     3  H    1.949948   3.214915   0.000000
     4  H    3.214915   1.949948   4.764615   0.000000
     5  O    1.410598   2.384382   0.946623   3.970590   0.000000
     6  O    2.384382   1.410598   3.970590   0.946623   3.250735
     7  H    1.084587   2.152384   2.370701   3.381074   2.166726
     8  H    1.090581   2.094078   2.308747   3.964176   1.950254
     9  H    2.152384   1.084587   3.381074   2.370701   2.443768
    10  H    2.094078   1.090581   3.964176   2.308747   3.211144
                    6          7          8          9         10
     6  O    0.000000
     7  H    2.443768   0.000000
     8  H    3.211144   1.760894   0.000000
     9  H    2.166726   3.035666   2.580067   0.000000
    10  H    1.950254   2.580067   2.203272   1.760894   0.000000
 Stoichiometry    C2H6O2
 Framework group  C1[X(C2H6O2)]
 Deg. of freedom    24
 Full point group                 C1      NOp   1
 Largest Abelian subgroup         C1      NOp   1
 Largest concise Abelian subgroup C1      NOp   1
                         Standard orientation:                         
 ---------------------------------------------------------------------
 Center     Atomic      Atomic             Coordinates (Angstroms)
 Number     Number       Type             X           Y           Z
 ---------------------------------------------------------------------
      1          6           0        0.638690    0.375578   -0.406324
      2          6           0       -0.638690    0.375578    0.406324
      3          1           0        2.362549   -0.530279   -0.306183
      4          1           0       -2.362549   -0.530279    0.306183
      5          8           0        1.605934   -0.413528    0.250590
      6          8           0       -1.605934   -0.413528   -0.250591
      7          1           0        0.426157    0.209139   -1.456780
      8          1           0        1.059950    1.375898   -0.300178
      9          1           0       -0.426157    0.209138    1.456780
     10          1           0       -1.059950    1.375898    0.300179
 ---------------------------------------------------------------------
 Rotational constants (GHZ):     21.2681547      4.3271186      4.2275654
 Standard basis: 6-31G(d) (6D, 7F)
 There are    72 symmetry adapted basis functions of A   symmetry.
 Integral buffers will be    131072 words long.
 Raffenetti 1 integral format.
 Two-electron integral symmetry is turned on.
    72 basis functions,   136 primitive gaussians,    72 cartesian basis functions
    17 alpha electrons       17 beta electrons
       nuclear repulsion energy       131.6617675821 Hartrees.
 NAtoms=   10 NActive=   10 NUniq=   10 SFac= 7.50D-01 NAtFMM=   80 NAOKFM=F Big=F
 One-electron integrals computed using PRISM.
 NBasis=    72 RedAO= T  NBF=    72
 NBsUse=    72 1.00D-06 NBFU=    72
 Initial guess read from the read-write file.
 B after Tr=     0.000000    0.000000    0.000000
         Rot=    1.000000    0.000000    0.000000    0.000000 Ang=   0.00 deg.
 Initial guess orbital symmetries:
       Occupied  (A) (A) (A) (A) (A) (A) (A) (A) (A) (A) (A) (A)
                 (A) (A) (A) (A) (A)
       Virtual   (A) (A) (A) (A) (A) (A) (A) (A) (A) (A) (A) (A)
                 (A) (A) (A) (A) (A) (A) (A) (A) (A) (A) (A) (A)
                 (A) (A) (A) (A) (A) (A) (A) (A) (A) (A) (A) (A)
                 (A) (A) (A) (A) (A) (A) (A) (A) (A) (A) (A) (A)
                 (A) (A) (A) (A) (A) (A) (A)
 Harris functional with IExCor=  205 diagonalized for initial guess.
 ExpMin= 1.61D-01 ExpMax= 5.48D+03 ExpMxC= 8.25D+02 IAcc=1 IRadAn=         1 AccDes= 0.00D+00
 HarFok:  IExCor=  205 AccDes= 0.00D+00 IRadAn=         1 IDoV= 1
 ScaDFX=  1.000000  1.000000  1.000000  1.000000
 FoFCou: FMM=F IPFlag=           0 FMFlag=      100000 FMFlg1=           0
         NFxFlg=           0 DoJE=T BraDBF=F KetDBF=T FulRan=T
         Omega=  0.000000  0.000000  1.000000  0.000000  0.000000 ICntrl=     500 IOpCl=  0
         NMat0=    1 NMatS0=    1 NMatT0=    0 NMatD0=    1 NMtDS0=    0 NMtDT0=    0
         I1Cent=           4 NGrid=           0.
 Petite list used in FoFCou.
 Requested convergence on RMS density matrix=1.00D-08 within 128 cycles.
 Requested convergence on MAX density matrix=1.00D-06.
 Requested convergence on             energy=1.00D-06.
 No special actions if energy rises.
 Keep R1 ints in memory in canonical form, NReq=4309202.
 SCF Done:  E(RHF) =  -228.904787290     A.U. after   10 cycles
             Convg  =    0.5040D-08             -V/T =  2.0015
 Calling FoFJK, ICntrl=      2127 FMM=F ISym2X=0 I1Cent= 0 IOpClX= 0 NMat=1 NMatS=1 NMatT=0.
 ***** Axes restored to original set *****
 -------------------------------------------------------------------
 Center     Atomic                   Forces (Hartrees/Bohr)
 Number     Number              X              Y              Z
 -------------------------------------------------------------------
      1        6           0.032505543    0.015388180    0.028944794
      2        6          -0.032505531   -0.015388179    0.028944800
      3        1          -0.000130488    0.000162488    0.000030227
      4        1           0.000130484   -0.000162483    0.000030228
      5        8          -0.014205958   -0.004769180   -0.021088112
      6        8           0.014205955    0.004769175   -0.021088116
      7        1           0.003003470    0.004787710   -0.013109866
      8        1          -0.012110406   -0.007546335    0.005222954
      9        1          -0.003003474   -0.004787711   -0.013109864
     10        1           0.012110406    0.007546336    0.005222955
 -------------------------------------------------------------------
 Cartesian Forces:  Max     0.032505543 RMS     0.014686080

 GradGradGradGradGradGradGradGradGradGradGradGradGradGradGradGradGradGrad
 Berny optimization.
 Using GEDIIS/GDIIS optimizer.
 Internal  Forces:  Max     0.024342404 RMS     0.007693159
 Search for a local minimum.
 Step number   2 out of a maximum of   48
 All quantities printed in internal units (Hartrees-Bohrs-Radians)
 Mixed Optimization -- RFO/linear search
 Update second derivatives using D2CorX and points    1    2
 DE= -8.83D-03 DEPred=-9.32D-03 R= 9.48D-01
 SS=  1.41D+00  RLast= 3.00D-01 DXNew= 5.0454D-01 8.9995D-01
 Trust test= 9.48D-01 RLast= 3.00D-01 DXMaxT set to 5.05D-01
 Use linear search instead of GDIIS.
 Linear search step of   0.592 exceeds DXMaxT=   0.505 but not scaled.
 Quartic linear search produced a step of  2.00000.
 Iteration  1 RMS(Cart)=  0.06582909 RMS(Int)=  0.01455405
 Iteration  2 RMS(Cart)=  0.01131854 RMS(Int)=  0.00177398
 Iteration  3 RMS(Cart)=  0.00012827 RMS(Int)=  0.00176920
 Iteration  4 RMS(Cart)=  0.00000005 RMS(Int)=  0.00176920
 Iteration  1 RMS(Cart)=  0.00002447 RMS(Int)=  0.00002409
 Iteration  2 RMS(Cart)=  0.00001541 RMS(Int)=  0.00002676
 Iteration  3 RMS(Cart)=  0.00000970 RMS(Int)=  0.00003066
 Iteration  4 RMS(Cart)=  0.00000611 RMS(Int)=  0.00003371
 Iteration  5 RMS(Cart)=  0.00000384 RMS(Int)=  0.00003580
 Iteration  6 RMS(Cart)=  0.00000242 RMS(Int)=  0.00003717
 Iteration  7 RMS(Cart)=  0.00000152 RMS(Int)=  0.00003805
 Iteration  8 RMS(Cart)=  0.00000096 RMS(Int)=  0.00003862
 Variable       Old X    -DE/DX   Delta X   Delta X   Delta X     New X
                                 (Linear)    (Quad)   (Total)
    R1        2.86098   0.00287   0.00792   0.00000   0.00792   2.86890
    R2        2.66564   0.00135   0.02078   0.00000   0.02078   2.68643
    R3        2.04957  -0.00149  -0.00711   0.00000  -0.00711   2.04247
    R4        2.06090   0.00039   0.00588   0.00000   0.00588   2.06678
    R5        2.66564   0.00135   0.02078   0.00000   0.02078   2.68643
    R6        2.04957  -0.00149  -0.00711   0.00000  -0.00711   2.04247
    R7        2.06090   0.00039   0.00588   0.00000   0.00588   2.06678
    R8        1.78886   0.00020   0.00109   0.00000   0.00109   1.78995
    R9        1.78886   0.00020   0.00109   0.00000   0.00109   1.78995
    A1        1.90559   0.00308   0.01907   0.00000   0.01646   1.92204
    A2        1.93322   0.00077  -0.00503   0.00000  -0.00732   1.92590
    A3        1.84800   0.00063  -0.01045   0.00000  -0.01355   1.83445
    A4        2.09389  -0.01504  -0.09042   0.00000  -0.09019   2.00370
    A5        1.77514   0.01428   0.11653   0.00000   0.11642   1.89156
    A6        1.88674  -0.00112  -0.01136   0.00000  -0.00918   1.87757
    A7        1.90559   0.00308   0.01907   0.00000   0.01646   1.92204
    A8        1.93322   0.00077  -0.00503   0.00000  -0.00732   1.92590
    A9        1.84800   0.00063  -0.01045   0.00000  -0.01355   1.83445
   A10        2.09389  -0.01504  -0.09042   0.00000  -0.09019   2.00370
   A11        1.77514   0.01428   0.11653   0.00000   0.11642   1.89156
   A12        1.88674  -0.00112  -0.01136   0.00000  -0.00918   1.87757
   A13        1.92106  -0.00009   0.00913   0.00000   0.00913   1.93020
   A14        1.92106  -0.00009   0.00913   0.00000   0.00913   1.93020
    D1       -1.87378   0.02434   0.00001   0.00000   0.00000  -1.87378
    D2        0.46904   0.00708  -0.11279   0.00000  -0.11293   0.35611
    D3        2.51039   0.00650  -0.13494   0.00000  -0.13488   2.37551
    D4        0.46904   0.00708  -0.11279   0.00000  -0.11293   0.35611
    D5        2.81186  -0.01017  -0.22558   0.00000  -0.22586   2.58600
    D6       -1.42998  -0.01075  -0.24773   0.00000  -0.24781  -1.67779
    D7        2.51039   0.00650  -0.13494   0.00000  -0.13488   2.37551
    D8       -1.42998  -0.01075  -0.24773   0.00000  -0.24781  -1.67779
    D9        0.61137  -0.01133  -0.26988   0.00000  -0.26976   0.34161
   D10        2.99285  -0.00594  -0.04034   0.00000  -0.04101   2.95185
   D11        0.73541   0.00362   0.03395   0.00000   0.03026   0.76567
   D12       -1.34267   0.00238   0.00487   0.00000   0.00922  -1.33346
   D13        2.99285  -0.00594  -0.04034   0.00000  -0.04101   2.95185
   D14        0.73541   0.00362   0.03395   0.00000   0.03026   0.76567
   D15       -1.34267   0.00238   0.00487   0.00000   0.00922  -1.33346
         Item               Value     Threshold  Converged?
 Maximum Force            0.010465     0.000450     NO 
 RMS     Force            0.004165     0.000300     NO 
 Maximum Displacement     0.184462     0.001800     NO 
 RMS     Displacement     0.075340     0.001200     NO 
 Predicted change in Energy=-7.659433D-03
 GradGradGradGradGradGradGradGradGradGradGradGradGradGradGradGradGradGrad

                          Input orientation:                          
 ---------------------------------------------------------------------
 Center     Atomic      Atomic             Coordinates (Angstroms)
 Number     Number       Type             X           Y           Z
 ---------------------------------------------------------------------
      1          6           0       -0.342008    0.677665    0.422204
      2          6           0        0.342008   -0.677665    0.422204
      3          1           0       -0.101219    2.391301   -0.510956
      4          1           0        0.101219   -2.391301   -0.510956
      5          8           0        0.397738    1.598894   -0.368394
      6          8           0       -0.397738   -1.598894   -0.368394
      7          1           0       -1.381343    0.574058    0.144295
      8          1           0       -0.310203    1.012987    1.462737
      9          1           0        1.381343   -0.574058    0.144295
     10          1           0        0.310203   -1.012987    1.462737
 ---------------------------------------------------------------------
                    Distance matrix (angstroms):
                    1          2          3          4          5
     1  C    0.000000
     2  C    1.518157   0.000000
     3  H    1.966041   3.238178   0.000000
     4  H    3.238178   1.966041   4.786885   0.000000
     5  O    1.421595   2.410575   0.947202   4.003737   0.000000
     6  O    2.410575   1.421595   4.003737   0.947202   3.295244
     7  H    1.080826   2.148019   2.317422   3.379453   2.116192
     8  H    1.093692   2.089592   2.416379   3.956503   2.048782
     9  H    2.148019   1.080826   3.379453   2.317422   2.439683
    10  H    2.089592   1.093692   3.956503   2.416379   3.191023
                    6          7          8          9         10
     6  O    0.000000
     7  H    2.439683   0.000000
     8  H    3.191023   1.754505   0.000000
     9  H    2.116192   2.991757   2.668020   0.000000
    10  H    2.048782   2.668020   2.118838   1.754505   0.000000
 Stoichiometry    C2H6O2
 Framework group  C1[X(C2H6O2)]
 Deg. of freedom    24
 Full point group                 C1      NOp   1
 Largest Abelian subgroup         C1      NOp   1
 Largest concise Abelian subgroup C1      NOp   1
                         Standard orientation:                         
 ---------------------------------------------------------------------
 Center     Atomic      Atomic             Coordinates (Angstroms)
 Number     Number       Type             X           Y           Z
 ---------------------------------------------------------------------
      1          6           0       -0.644850    0.382078    0.400460
      2          6           0        0.644850    0.382078   -0.400460
      3          1           0       -2.373047   -0.551083    0.311791
      4          1           0        2.373047   -0.551083   -0.311791
      5          8           0       -1.627749   -0.408520   -0.255128
      6          8           0        1.627749   -0.408520    0.255128
      7          1           0       -0.449954    0.104169    1.426602
      8          1           0       -0.981670    1.422611    0.398362
      9          1           0        0.449954    0.104169   -1.426602
     10          1           0        0.981670    1.422611   -0.398362
 ---------------------------------------------------------------------
 Rotational constants (GHZ):     21.1290563      4.2472516      4.1403471
 Standard basis: 6-31G(d) (6D, 7F)
 There are    72 symmetry adapted basis functions of A   symmetry.
 Integral buffers will be    131072 words long.
 Raffenetti 1 integral format.
 Two-electron integral symmetry is turned on.
    72 basis functions,   136 primitive gaussians,    72 cartesian basis functions
    17 alpha electrons       17 beta electrons
       nuclear repulsion energy       130.8263196154 Hartrees.
 NAtoms=   10 NActive=   10 NUniq=   10 SFac= 7.50D-01 NAtFMM=   80 NAOKFM=F Big=F
 One-electron integrals computed using PRISM.
 NBasis=    72 RedAO= T  NBF=    72
 NBsUse=    72 1.00D-06 NBFU=    72
 Initial guess read from the read-write file.
 B after Tr=     0.000000    0.000000    0.000000
         Rot=    1.000000    0.000000    0.000000    0.000000 Ang=   0.00 deg.
 Initial guess orbital symmetries:
       Occupied  (A) (A) (A) (A) (A) (A) (A) (A) (A) (A) (A) (A)
                 (A) (A) (A) (A) (A)
       Virtual   (A) (A) (A) (A) (A) (A) (A) (A) (A) (A) (A) (A)
                 (A) (A) (A) (A) (A) (A) (A) (A) (A) (A) (A) (A)
                 (A) (A) (A) (A) (A) (A) (A) (A) (A) (A) (A) (A)
                 (A) (A) (A) (A) (A) (A) (A) (A) (A) (A) (A) (A)
                 (A) (A) (A) (A) (A) (A) (A)
 Harris functional with IExCor=  205 diagonalized for initial guess.
 ExpMin= 1.61D-01 ExpMax= 5.48D+03 ExpMxC= 8.25D+02 IAcc=1 IRadAn=         1 AccDes= 0.00D+00
 HarFok:  IExCor=  205 AccDes= 0.00D+00 IRadAn=         1 IDoV= 1
 ScaDFX=  1.000000  1.000000  1.000000  1.000000
 FoFCou: FMM=F IPFlag=           0 FMFlag=      100000 FMFlg1=           0
         NFxFlg=           0 DoJE=T BraDBF=F KetDBF=T FulRan=T
         Omega=  0.000000  0.000000  1.000000  0.000000  0.000000 ICntrl=     500 IOpCl=  0
         NMat0=    1 NMatS0=    1 NMatT0=    0 NMatD0=    1 NMtDS0=    0 NMtDT0=    0
         I1Cent=           4 NGrid=           0.
 Petite list used in FoFCou.
 Requested convergence on RMS density matrix=1.00D-08 within 128 cycles.
 Requested convergence on MAX density matrix=1.00D-06.
 Requested convergence on             energy=1.00D-06.
 No special actions if energy rises.
 Keep R1 ints in memory in canonical form, NReq=4309202.
 SCF Done:  E(RHF) =  -228.912883831     A.U. after   12 cycles
             Convg  =    0.6755D-08             -V/T =  2.0019
 Calling FoFJK, ICntrl=      2127 FMM=F ISym2X=0 I1Cent= 0 IOpClX= 0 NMat=1 NMatS=1 NMatT=0.
 ***** Axes restored to original set *****
 -------------------------------------------------------------------
 Center     Atomic                   Forces (Hartrees/Bohr)
 Number     Number              X              Y              Z
 -------------------------------------------------------------------
      1        6           0.017797674    0.012424701    0.011215879
      2        6          -0.017797678   -0.012424692    0.011215874
      3        1          -0.001158398   -0.001486452    0.001558886
      4        1           0.001158399    0.001486447    0.001558885
      5        8          -0.010300530   -0.011247780   -0.000883452
      6        8           0.010300532    0.011247778   -0.000883449
      7        1          -0.000101917    0.000948998   -0.006921505
      8        1          -0.003922049    0.004276883   -0.004969804
      9        1           0.000101920   -0.000949000   -0.006921507
     10        1           0.003922047   -0.004276883   -0.004969807
 -------------------------------------------------------------------
 Cartesian Forces:  Max     0.017797678 RMS     0.007930923

 GradGradGradGradGradGradGradGradGradGradGradGradGradGradGradGradGradGrad
 Berny optimization.
 Using GEDIIS/GDIIS optimizer.
 Internal  Forces:  Max     0.014590539 RMS     0.005328884
 Search for a local minimum.
 Step number   3 out of a maximum of   48
 All quantities printed in internal units (Hartrees-Bohrs-Radians)
 Mixed Optimization -- RFO/linear search
 Update second derivatives using D2CorX and points    2    3
 Use linear search instead of GDIIS.
     Eigenvalues ---    0.01623   0.01624   0.02041   0.05110   0.06455
     Eigenvalues ---    0.06621   0.11208   0.11452   0.13845   0.14288
     Eigenvalues ---    0.16000   0.16385   0.22039   0.22343   0.31105
     Eigenvalues ---    0.34925   0.35036   0.35224   0.35305   0.44786
     Eigenvalues ---    0.47433   0.58520   0.585341000.000001000.00000
     Eigenvalues --- 1000.000001000.000001000.000001000.000001000.00000
     Eigenvalues --- 1000.000001000.000001000.000001000.000001000.00000
     Eigenvalues --- 1000.000001000.000001000.00000
 RFO step:  Lambda=-6.25004002D-03 EMin= 1.62307871D-02
 Quartic linear search produced a step of  0.18648.
 Iteration  1 RMS(Cart)=  0.06477771 RMS(Int)=  0.00395718
 Iteration  2 RMS(Cart)=  0.00334680 RMS(Int)=  0.00091637
 Iteration  3 RMS(Cart)=  0.00000954 RMS(Int)=  0.00091631
 Iteration  4 RMS(Cart)=  0.00000002 RMS(Int)=  0.00091631
 Iteration  1 RMS(Cart)=  0.00002023 RMS(Int)=  0.00002036
 Iteration  2 RMS(Cart)=  0.00001271 RMS(Int)=  0.00002261
 Iteration  3 RMS(Cart)=  0.00000799 RMS(Int)=  0.00002591
 Iteration  4 RMS(Cart)=  0.00000502 RMS(Int)=  0.00002847
 Iteration  5 RMS(Cart)=  0.00000315 RMS(Int)=  0.00003023
 Iteration  6 RMS(Cart)=  0.00000198 RMS(Int)=  0.00003138
 Iteration  7 RMS(Cart)=  0.00000125 RMS(Int)=  0.00003212
 Iteration  8 RMS(Cart)=  0.00000078 RMS(Int)=  0.00003259
 Variable       Old X    -DE/DX   Delta X   Delta X   Delta X     New X
                                 (Linear)    (Quad)   (Total)
    R1        2.86890   0.00335   0.00148   0.01122   0.01269   2.88159
    R2        2.68643  -0.01459   0.00388  -0.03493  -0.03105   2.65537
    R3        2.04247   0.00179  -0.00133   0.00559   0.00427   2.04673
    R4        2.06678  -0.00353   0.00110  -0.01085  -0.00975   2.05703
    R5        2.68643  -0.01459   0.00388  -0.03493  -0.03105   2.65537
    R6        2.04247   0.00179  -0.00133   0.00559   0.00427   2.04673
    R7        2.06678  -0.00353   0.00110  -0.01085  -0.00975   2.05703
    R8        1.78995  -0.00087   0.00020  -0.00161  -0.00140   1.78855
    R9        1.78995  -0.00087   0.00020  -0.00161  -0.00140   1.78855
    A1        1.92204  -0.00257   0.00307  -0.01795  -0.01671   1.90533
    A2        1.92590  -0.00105  -0.00137  -0.01543  -0.01906   1.90683
    A3        1.83445   0.00951  -0.00253   0.08856   0.08513   1.91958
    A4        2.00370  -0.00444  -0.01682  -0.04552  -0.06395   1.93975
    A5        1.89156   0.00067   0.02171  -0.00909   0.01205   1.90361
    A6        1.87757  -0.00073  -0.00171   0.01286   0.01114   1.88871
    A7        1.92204  -0.00257   0.00307  -0.01795  -0.01671   1.90533
    A8        1.92590  -0.00105  -0.00137  -0.01543  -0.01906   1.90683
    A9        1.83445   0.00951  -0.00253   0.08856   0.08513   1.91958
   A10        2.00370  -0.00444  -0.01682  -0.04552  -0.06395   1.93975
   A11        1.89156   0.00067   0.02171  -0.00909   0.01205   1.90361
   A12        1.87757  -0.00073  -0.00171   0.01286   0.01114   1.88871
   A13        1.93020  -0.00407   0.00170  -0.02669  -0.02499   1.90521
   A14        1.93020  -0.00407   0.00170  -0.02669  -0.02499   1.90521
    D1       -1.87378   0.00981   0.00000   0.00000  -0.00001  -1.87379
    D2        0.35611   0.00130  -0.02106  -0.08448  -0.10540   0.25071
    D3        2.37551   0.00509  -0.02515  -0.02888  -0.05410   2.32141
    D4        0.35611   0.00130  -0.02106  -0.08448  -0.10540   0.25071
    D5        2.58600  -0.00722  -0.04212  -0.16896  -0.21079   2.37521
    D6       -1.67779  -0.00343  -0.04621  -0.11335  -0.15949  -1.83728
    D7        2.37551   0.00509  -0.02515  -0.02888  -0.05410   2.32141
    D8       -1.67779  -0.00343  -0.04621  -0.11335  -0.15949  -1.83728
    D9        0.34161   0.00036  -0.05031  -0.05775  -0.10819   0.23342
   D10        2.95185  -0.00563  -0.00765  -0.04714  -0.05388   2.89797
   D11        0.76567   0.00135   0.00564   0.02376   0.02784   0.79351
   D12       -1.33346   0.00470   0.00172   0.04370   0.04608  -1.28737
   D13        2.95185  -0.00563  -0.00765  -0.04714  -0.05388   2.89797
   D14        0.76567   0.00135   0.00564   0.02376   0.02784   0.79351
   D15       -1.33346   0.00470   0.00172   0.04370   0.04608  -1.28737
         Item               Value     Threshold  Converged?
 Maximum Force            0.014591     0.000450     NO 
 RMS     Force            0.004705     0.000300     NO 
 Maximum Displacement     0.163142     0.001800     NO 
 RMS     Displacement     0.065741     0.001200     NO 
 Predicted change in Energy=-3.557032D-03
 GradGradGradGradGradGradGradGradGradGradGradGradGradGradGradGradGradGrad

                          Input orientation:                          
 ---------------------------------------------------------------------
 Center     Atomic      Atomic             Coordinates (Angstroms)
 Number     Number       Type             X           Y           Z
 ---------------------------------------------------------------------
      1          6           0       -0.338249    0.683299    0.453447
      2          6           0        0.338249   -0.683299    0.453447
      3          1           0       -0.101645    2.343467   -0.511507
      4          1           0        0.101645   -2.343467   -0.511507
      5          8           0        0.415479    1.571205   -0.332684
      6          8           0       -0.415479   -1.571205   -0.332684
      7          1           0       -1.346609    0.582647    0.071152
      8          1           0       -0.396534    1.069547    1.469476
      9          1           0        1.346609   -0.582647    0.071152
     10          1           0        0.396534   -1.069547    1.469476
 ---------------------------------------------------------------------
                    Distance matrix (angstroms):
                    1          2          3          4          5
     1  C    0.000000
     2  C    1.524874   0.000000
     3  H    1.934754   3.207173   0.000000
     4  H    3.207173   1.934754   4.691341   0.000000
     5  O    1.405163   2.388882   0.946458   3.931301   0.000000
     6  O    2.388882   1.405163   3.931301   0.946458   3.250421
     7  H    1.083084   2.141848   2.233812   3.316485   2.060409
     8  H    1.088531   2.155155   2.373631   3.977580   2.039315
     9  H    2.141848   1.083084   3.316485   2.233812   2.381001
    10  H    2.155155   1.088531   3.977580   2.373631   3.197141
                    6          7          8          9         10
     6  O    0.000000
     7  H    2.381001   0.000000
     8  H    3.197141   1.759268   0.000000
     9  H    2.060409   2.934507   2.779137   0.000000
    10  H    2.039315   2.779137   2.281377   1.759268   0.000000
 Stoichiometry    C2H6O2
 Framework group  C1[X(C2H6O2)]
 Deg. of freedom    24
 Full point group                 C1      NOp   1
 Largest Abelian subgroup         C1      NOp   1
 Largest concise Abelian subgroup C1      NOp   1
                         Standard orientation:                         
 ---------------------------------------------------------------------
 Center     Atomic      Atomic             Coordinates (Angstroms)
 Number     Number       Type             X           Y           Z
 ---------------------------------------------------------------------
      1          6           0        0.649062    0.389428   -0.400036
      2          6           0       -0.649062    0.389428    0.400036
      3          1           0        2.324002   -0.575526   -0.318096
      4          1           0       -2.324002   -0.575526    0.318096
      5          8           0        1.602914   -0.396703    0.268281
      6          8           0       -1.602914   -0.396703   -0.268281
      7          1           0        0.455518    0.007132   -1.394753
      8          1           0        1.028258    1.405456   -0.493819
      9          1           0       -0.455518    0.007132    1.394753
     10          1           0       -1.028258    1.405456    0.493819
 ---------------------------------------------------------------------
 Rotational constants (GHZ):     21.1522078      4.3380552      4.2410156
 Standard basis: 6-31G(d) (6D, 7F)
 There are    72 symmetry adapted basis functions of A   symmetry.
 Integral buffers will be    131072 words long.
 Raffenetti 1 integral format.
 Two-electron integral symmetry is turned on.
    72 basis functions,   136 primitive gaussians,    72 cartesian basis functions
    17 alpha electrons       17 beta electrons
       nuclear repulsion energy       131.7784248426 Hartrees.
 NAtoms=   10 NActive=   10 NUniq=   10 SFac= 7.50D-01 NAtFMM=   80 NAOKFM=F Big=F
 One-electron integrals computed using PRISM.
 NBasis=    72 RedAO= T  NBF=    72
 NBsUse=    72 1.00D-06 NBFU=    72
 Initial guess read from the read-write file.
 B after Tr=     0.000000    0.000000    0.000000
         Rot=    1.000000    0.000000    0.000000    0.000000 Ang=   0.00 deg.
 Initial guess orbital symmetries:
       Occupied  (A) (A) (A) (A) (A) (A) (A) (A) (A) (A) (A) (A)
                 (A) (A) (A) (A) (A)
       Virtual   (A) (A) (A) (A) (A) (A) (A) (A) (A) (A) (A) (A)
                 (A) (A) (A) (A) (A) (A) (A) (A) (A) (A) (A) (A)
                 (A) (A) (A) (A) (A) (A) (A) (A) (A) (A) (A) (A)
                 (A) (A) (A) (A) (A) (A) (A) (A) (A) (A) (A) (A)
                 (A) (A) (A) (A) (A) (A) (A)
 Harris functional with IExCor=  205 diagonalized for initial guess.
 ExpMin= 1.61D-01 ExpMax= 5.48D+03 ExpMxC= 8.25D+02 IAcc=1 IRadAn=         1 AccDes= 0.00D+00
 HarFok:  IExCor=  205 AccDes= 0.00D+00 IRadAn=         1 IDoV= 1
 ScaDFX=  1.000000  1.000000  1.000000  1.000000
 FoFCou: FMM=F IPFlag=           0 FMFlag=      100000 FMFlg1=           0
         NFxFlg=           0 DoJE=T BraDBF=F KetDBF=T FulRan=T
         Omega=  0.000000  0.000000  1.000000  0.000000  0.000000 ICntrl=     500 IOpCl=  0
         NMat0=    1 NMatS0=    1 NMatT0=    0 NMatD0=    1 NMtDS0=    0 NMtDT0=    0
         I1Cent=           4 NGrid=           0.
 Petite list used in FoFCou.
 Requested convergence on RMS density matrix=1.00D-08 within 128 cycles.
 Requested convergence on MAX density matrix=1.00D-06.
 Requested convergence on             energy=1.00D-06.
 No special actions if energy rises.
 Keep R1 ints in memory in canonical form, NReq=4309202.
 SCF Done:  E(RHF) =  -228.916044468     A.U. after   12 cycles
             Convg  =    0.8341D-08             -V/T =  2.0015
 Calling FoFJK, ICntrl=      2127 FMM=F ISym2X=0 I1Cent= 0 IOpClX= 0 NMat=1 NMatS=1 NMatT=0.
 ***** Axes restored to original set *****
 -------------------------------------------------------------------
 Center     Atomic                   Forces (Hartrees/Bohr)
 Number     Number              X              Y              Z
 -------------------------------------------------------------------
      1        6           0.004371203    0.002885614    0.003813589
      2        6          -0.004371203   -0.002885618    0.003813592
      3        1           0.000894438    0.000571014   -0.000007932
      4        1          -0.000894437   -0.000571014   -0.000007931
      5        8          -0.000946705   -0.000834454   -0.003639587
      6        8           0.000946703    0.000834457   -0.003639587
      7        1          -0.000792179   -0.002344877   -0.000115289
      8        1          -0.000806258   -0.001247657   -0.000050783
      9        1           0.000792179    0.002344878   -0.000115290
     10        1           0.000806258    0.001247656   -0.000050782
 -------------------------------------------------------------------
 Cartesian Forces:  Max     0.004371203 RMS     0.002102245

 GradGradGradGradGradGradGradGradGradGradGradGradGradGradGradGradGradGrad
 Berny optimization.
 Using GEDIIS/GDIIS optimizer.
 Internal  Forces:  Max     0.002755274 RMS     0.001353288
 Search for a local minimum.
 Step number   4 out of a maximum of   48
 All quantities printed in internal units (Hartrees-Bohrs-Radians)
 Mixed Optimization -- RFO/linear search
 Update second derivatives using D2CorX and points    3    4
 DE= -3.16D-03 DEPred=-3.56D-03 R= 8.89D-01
 SS=  1.41D+00  RLast= 4.18D-01 DXNew= 8.4853D-01 1.2541D+00
 Trust test= 8.89D-01 RLast= 4.18D-01 DXMaxT set to 8.49D-01
 Use linear search instead of GDIIS.
     Eigenvalues ---    0.01600   0.01624   0.02144   0.05369   0.06071
     Eigenvalues ---    0.06502   0.11305   0.12265   0.13751   0.14003
     Eigenvalues ---    0.16000   0.17093   0.22016   0.22088   0.31315
     Eigenvalues ---    0.34925   0.34965   0.35188   0.35224   0.44786
     Eigenvalues ---    0.48706   0.58520   0.585301000.000001000.00000
     Eigenvalues --- 1000.000001000.000001000.000001000.000001000.00000
     Eigenvalues --- 1000.000001000.000001000.000001000.000001000.00000
     Eigenvalues --- 1000.000001000.000001000.00000
 RFO step:  Lambda=-3.33146530D-04 EMin= 1.59959127D-02
 Quartic linear search produced a step of -0.02380.
 Iteration  1 RMS(Cart)=  0.01512352 RMS(Int)=  0.00014276
 Iteration  2 RMS(Cart)=  0.00013839 RMS(Int)=  0.00005162
 Iteration  3 RMS(Cart)=  0.00000002 RMS(Int)=  0.00005162
 Iteration  1 RMS(Cart)=  0.00001075 RMS(Int)=  0.00001081
 Iteration  2 RMS(Cart)=  0.00000677 RMS(Int)=  0.00001200
 Iteration  3 RMS(Cart)=  0.00000426 RMS(Int)=  0.00001375
 Iteration  4 RMS(Cart)=  0.00000268 RMS(Int)=  0.00001512
 Iteration  5 RMS(Cart)=  0.00000169 RMS(Int)=  0.00001606
 Iteration  6 RMS(Cart)=  0.00000106 RMS(Int)=  0.00001668
 Iteration  7 RMS(Cart)=  0.00000067 RMS(Int)=  0.00001707
 Variable       Old X    -DE/DX   Delta X   Delta X   Delta X     New X
                                 (Linear)    (Quad)   (Total)
    R1        2.88159  -0.00208  -0.00030  -0.00533  -0.00563   2.87596
    R2        2.65537   0.00185   0.00074   0.00078   0.00152   2.65689
    R3        2.04673   0.00100  -0.00010   0.00328   0.00318   2.04991
    R4        2.05703  -0.00045   0.00023  -0.00228  -0.00205   2.05498
    R5        2.65537   0.00185   0.00074   0.00078   0.00152   2.65689
    R6        2.04673   0.00100  -0.00010   0.00328   0.00318   2.04991
    R7        2.05703  -0.00045   0.00023  -0.00228  -0.00205   2.05498
    R8        1.78855  -0.00002   0.00003  -0.00019  -0.00015   1.78839
    R9        1.78855  -0.00002   0.00003  -0.00019  -0.00015   1.78839
    A1        1.90533  -0.00145   0.00040  -0.00806  -0.00765   1.89768
    A2        1.90683  -0.00204   0.00045  -0.01952  -0.01905   1.88779
    A3        1.91958   0.00014  -0.00203   0.00589   0.00390   1.92348
    A4        1.93975   0.00084   0.00152   0.00786   0.00924   1.94899
    A5        1.90361   0.00230  -0.00029   0.01240   0.01215   1.91575
    A6        1.88871   0.00026  -0.00027   0.00170   0.00137   1.89008
    A7        1.90533  -0.00145   0.00040  -0.00806  -0.00765   1.89768
    A8        1.90683  -0.00204   0.00045  -0.01952  -0.01905   1.88779
    A9        1.91958   0.00014  -0.00203   0.00589   0.00390   1.92348
   A10        1.93975   0.00084   0.00152   0.00786   0.00924   1.94899
   A11        1.90361   0.00230  -0.00029   0.01240   0.01215   1.91575
   A12        1.88871   0.00026  -0.00027   0.00170   0.00137   1.89008
   A13        1.90521   0.00161   0.00059   0.00717   0.00777   1.91298
   A14        1.90521   0.00161   0.00059   0.00717   0.00777   1.91298
    D1       -1.87379   0.00276   0.00000   0.00000   0.00000  -1.87379
    D2        0.25071   0.00160   0.00251  -0.00757  -0.00503   0.24568
    D3        2.32141   0.00076   0.00129  -0.01380  -0.01251   2.30890
    D4        0.25071   0.00160   0.00251  -0.00757  -0.00503   0.24568
    D5        2.37521   0.00045   0.00502  -0.01514  -0.01006   2.36515
    D6       -1.83728  -0.00040   0.00380  -0.02137  -0.01754  -1.85482
    D7        2.32141   0.00076   0.00129  -0.01380  -0.01251   2.30890
    D8       -1.83728  -0.00040   0.00380  -0.02137  -0.01754  -1.85482
    D9        0.23342  -0.00124   0.00258  -0.02760  -0.02502   0.20840
   D10        2.89797  -0.00090   0.00128   0.00784   0.00905   2.90702
   D11        0.79351   0.00207  -0.00066   0.03245   0.03192   0.82543
   D12       -1.28737  -0.00022  -0.00110   0.01764   0.01648  -1.27089
   D13        2.89797  -0.00090   0.00128   0.00784   0.00905   2.90702
   D14        0.79351   0.00207  -0.00066   0.03245   0.03192   0.82543
   D15       -1.28737  -0.00022  -0.00110   0.01764   0.01648  -1.27089
         Item               Value     Threshold  Converged?
 Maximum Force            0.002077     0.000450     NO 
 RMS     Force            0.001153     0.000300     NO 
 Maximum Displacement     0.045074     0.001800     NO 
 RMS     Displacement     0.015172     0.001200     NO 
 Predicted change in Energy=-1.703919D-04
 GradGradGradGradGradGradGradGradGradGradGradGradGradGradGradGradGradGrad

                          Input orientation:                          
 ---------------------------------------------------------------------
 Center     Atomic      Atomic             Coordinates (Angstroms)
 Number     Number       Type             X           Y           Z
 ---------------------------------------------------------------------
      1          6           0       -0.339089    0.681218    0.456510
      2          6           0        0.339089   -0.681218    0.456510
      3          1           0       -0.084977    2.343177   -0.512313
      4          1           0        0.084977   -2.343177   -0.512313
      5          8           0        0.420164    1.563434   -0.332139
      6          8           0       -0.420164   -1.563434   -0.332139
      7          1           0       -1.343828    0.558795    0.066339
      8          1           0       -0.411451    1.064786    1.471489
      9          1           0        1.343828   -0.558795    0.066339
     10          1           0        0.411451   -1.064786    1.471489
 ---------------------------------------------------------------------
                    Distance matrix (angstroms):
                    1          2          3          4          5
     1  C    0.000000
     2  C    1.521894   0.000000
     3  H    1.940438   3.203969   0.000000
     4  H    3.203969   1.940438   4.689435   0.000000
     5  O    1.405966   2.380547   0.946377   3.925102   0.000000
     6  O    2.380547   1.405966   3.925102   0.946377   3.237817
     7  H    1.084768   2.126518   2.259107   3.285995   2.068757
     8  H    1.087448   2.154536   2.382507   3.974434   2.047758
     9  H    2.126518   1.084768   3.285995   2.259107   2.348573
    10  H    2.154536   1.087448   3.974434   2.382507   3.187585
                    6          7          8          9         10
     6  O    0.000000
     7  H    2.348573   0.000000
     8  H    3.187585   1.760626   0.000000
     9  H    2.068757   2.910757   2.773350   0.000000
    10  H    2.047758   2.773350   2.283035   1.760626   0.000000
 Stoichiometry    C2H6O2
 Framework group  C1[X(C2H6O2)]
 Deg. of freedom    24
 Full point group                 C1      NOp   1
 Largest Abelian subgroup         C1      NOp   1
 Largest concise Abelian subgroup C1      NOp   1
                         Standard orientation:                         
 ---------------------------------------------------------------------
 Center     Atomic      Atomic             Coordinates (Angstroms)
 Number     Number       Type             X           Y           Z
 ---------------------------------------------------------------------
      1          6           0        0.645077    0.391365   -0.403629
      2          6           0       -0.645077    0.391365    0.403629
      3          1           0        2.323856   -0.577458   -0.312082
      4          1           0       -2.323856   -0.577458    0.312082
      5          8           0        1.596842   -0.397284    0.266381
      6          8           0       -1.596842   -0.397284   -0.266381
      7          1           0        0.425678    0.001194   -1.391734
      8          1           0        1.019806    1.406345   -0.512891
      9          1           0       -0.425678    0.001194    1.391734
     10          1           0       -1.019806    1.406345    0.512891
 ---------------------------------------------------------------------
 Rotational constants (GHZ):     21.0489510      4.3674335      4.2689009
 Standard basis: 6-31G(d) (6D, 7F)
 There are    72 symmetry adapted basis functions of A   symmetry.
 Integral buffers will be    131072 words long.
 Raffenetti 1 integral format.
 Two-electron integral symmetry is turned on.
    72 basis functions,   136 primitive gaussians,    72 cartesian basis functions
    17 alpha electrons       17 beta electrons
       nuclear repulsion energy       131.9339658608 Hartrees.
 NAtoms=   10 NActive=   10 NUniq=   10 SFac= 7.50D-01 NAtFMM=   80 NAOKFM=F Big=F
 One-electron integrals computed using PRISM.
 NBasis=    72 RedAO= T  NBF=    72
 NBsUse=    72 1.00D-06 NBFU=    72
 Initial guess read from the read-write file.
 B after Tr=     0.000000    0.000000    0.000000
         Rot=    1.000000    0.000000    0.000000    0.000000 Ang=   0.00 deg.
 Initial guess orbital symmetries:
       Occupied  (A) (A) (A) (A) (A) (A) (A) (A) (A) (A) (A) (A)
                 (A) (A) (A) (A) (A)
       Virtual   (A) (A) (A) (A) (A) (A) (A) (A) (A) (A) (A) (A)
                 (A) (A) (A) (A) (A) (A) (A) (A) (A) (A) (A) (A)
                 (A) (A) (A) (A) (A) (A) (A) (A) (A) (A) (A) (A)
                 (A) (A) (A) (A) (A) (A) (A) (A) (A) (A) (A) (A)
                 (A) (A) (A) (A) (A) (A) (A)
 Harris functional with IExCor=  205 diagonalized for initial guess.
 ExpMin= 1.61D-01 ExpMax= 5.48D+03 ExpMxC= 8.25D+02 IAcc=1 IRadAn=         1 AccDes= 0.00D+00
 HarFok:  IExCor=  205 AccDes= 0.00D+00 IRadAn=         1 IDoV= 1
 ScaDFX=  1.000000  1.000000  1.000000  1.000000
 FoFCou: FMM=F IPFlag=           0 FMFlag=      100000 FMFlg1=           0
         NFxFlg=           0 DoJE=T BraDBF=F KetDBF=T FulRan=T
         Omega=  0.000000  0.000000  1.000000  0.000000  0.000000 ICntrl=     500 IOpCl=  0
         NMat0=    1 NMatS0=    1 NMatT0=    0 NMatD0=    1 NMtDS0=    0 NMtDT0=    0
         I1Cent=           4 NGrid=           0.
 Petite list used in FoFCou.
 Requested convergence on RMS density matrix=1.00D-08 within 128 cycles.
 Requested convergence on MAX density matrix=1.00D-06.
 Requested convergence on             energy=1.00D-06.
 No special actions if energy rises.
 Keep R1 ints in memory in canonical form, NReq=4309202.
 SCF Done:  E(RHF) =  -228.916197741     A.U. after   10 cycles
             Convg  =    0.2960D-08             -V/T =  2.0015
 Calling FoFJK, ICntrl=      2127 FMM=F ISym2X=0 I1Cent= 0 IOpClX= 0 NMat=1 NMatS=1 NMatT=0.
 ***** Axes restored to original set *****
 -------------------------------------------------------------------
 Center     Atomic                   Forces (Hartrees/Bohr)
 Number     Number              X              Y              Z
 -------------------------------------------------------------------
      1        6           0.001493090    0.001331936    0.001840229
      2        6          -0.001493089   -0.001331936    0.001840228
      3        1           0.000182594    0.000380243    0.000359337
      4        1          -0.000182594   -0.000380243    0.000359336
      5        8          -0.001788051   -0.000763755   -0.002213349
      6        8           0.001788050    0.000763754   -0.002213349
      7        1           0.000064393    0.000440464   -0.000032456
      8        1          -0.000144138    0.000173177    0.000046240
      9        1          -0.000064393   -0.000440464   -0.000032456
     10        1           0.000144138   -0.000173177    0.000046240
 -------------------------------------------------------------------
 Cartesian Forces:  Max     0.002213349 RMS     0.001052880

 GradGradGradGradGradGradGradGradGradGradGradGradGradGradGradGradGradGrad
 Berny optimization.
 Using GEDIIS/GDIIS optimizer.
 Internal  Forces:  Max     0.002095539 RMS     0.000664790
 Search for a local minimum.
 Step number   5 out of a maximum of   48
 All quantities printed in internal units (Hartrees-Bohrs-Radians)
 Mixed Optimization -- En-DIIS/RFO-DIIS
 Update second derivatives using D2CorX and points    3    4    5
 DE= -1.53D-04 DEPred=-1.70D-04 R= 9.00D-01
 SS=  1.41D+00  RLast= 7.73D-02 DXNew= 1.4270D+00 2.3197D-01
 Trust test= 9.00D-01 RLast= 7.73D-02 DXMaxT set to 8.49D-01
 Use linear search instead of GDIIS.
     Eigenvalues ---    0.01252   0.01624   0.02334   0.05429   0.06152
     Eigenvalues ---    0.06512   0.11185   0.13708   0.13816   0.14461
     Eigenvalues ---    0.16000   0.16727   0.22015   0.23115   0.33550
     Eigenvalues ---    0.34925   0.35033   0.35224   0.35587   0.44786
     Eigenvalues ---    0.48906   0.58520   0.585551000.000001000.00000
     Eigenvalues --- 1000.000001000.000001000.000001000.000001000.00000
     Eigenvalues --- 1000.000001000.000001000.000001000.000001000.00000
     Eigenvalues --- 1000.000001000.000001000.00000
 RFO step:  Lambda=-4.33613837D-05 EMin= 1.25220271D-02
 Quartic linear search produced a step of -0.08533.
 Iteration  1 RMS(Cart)=  0.00744675 RMS(Int)=  0.00006642
 Iteration  2 RMS(Cart)=  0.00006049 RMS(Int)=  0.00000406
 Iteration  3 RMS(Cart)=  0.00000000 RMS(Int)=  0.00000406
 Iteration  1 RMS(Cart)=  0.00000040 RMS(Int)=  0.00000040
 Variable       Old X    -DE/DX   Delta X   Delta X   Delta X     New X
                                 (Linear)    (Quad)   (Total)
    R1        2.87596   0.00148   0.00048   0.00319   0.00367   2.87964
    R2        2.65689  -0.00007  -0.00013   0.00017   0.00004   2.65693
    R3        2.04991  -0.00010  -0.00027   0.00041   0.00014   2.05006
    R4        2.05498   0.00011   0.00017  -0.00015   0.00003   2.05501
    R5        2.65689  -0.00007  -0.00013   0.00017   0.00004   2.65693
    R6        2.04991  -0.00010  -0.00027   0.00041   0.00014   2.05006
    R7        2.05498   0.00011   0.00017  -0.00015   0.00003   2.05501
    R8        1.78839   0.00015   0.00001   0.00020   0.00021   1.78860
    R9        1.78839   0.00015   0.00001   0.00020   0.00021   1.78860
    A1        1.89768   0.00053   0.00065   0.00069   0.00134   1.89902
    A2        1.88779   0.00028   0.00163   0.00007   0.00170   1.88948
    A3        1.92348  -0.00001  -0.00033   0.00008  -0.00026   1.92323
    A4        1.94899  -0.00130  -0.00079  -0.00096  -0.00174   1.94725
    A5        1.91575   0.00062  -0.00104   0.00127   0.00023   1.91599
    A6        1.89008  -0.00012  -0.00012  -0.00116  -0.00128   1.88880
    A7        1.89768   0.00053   0.00065   0.00069   0.00134   1.89902
    A8        1.88779   0.00028   0.00163   0.00007   0.00170   1.88948
    A9        1.92348  -0.00001  -0.00033   0.00008  -0.00026   1.92323
   A10        1.94899  -0.00130  -0.00079  -0.00096  -0.00174   1.94725
   A11        1.91575   0.00062  -0.00104   0.00127   0.00023   1.91599
   A12        1.89008  -0.00012  -0.00012  -0.00116  -0.00128   1.88880
   A13        1.91298   0.00016  -0.00066   0.00253   0.00187   1.91485
   A14        1.91298   0.00016  -0.00066   0.00253   0.00187   1.91485
    D1       -1.87379   0.00210   0.00000   0.00000   0.00001  -1.87378
    D2        0.24568   0.00100   0.00043  -0.00071  -0.00029   0.24540
    D3        2.30890   0.00101   0.00107  -0.00204  -0.00097   2.30793
    D4        0.24568   0.00100   0.00043  -0.00071  -0.00029   0.24540
    D5        2.36515  -0.00010   0.00086  -0.00143  -0.00058   2.36458
    D6       -1.85482  -0.00009   0.00150  -0.00275  -0.00126  -1.85607
    D7        2.30890   0.00101   0.00107  -0.00204  -0.00097   2.30793
    D8       -1.85482  -0.00009   0.00150  -0.00275  -0.00126  -1.85607
    D9        0.20840  -0.00007   0.00213  -0.00407  -0.00194   0.20646
   D10        2.90702   0.00003  -0.00077   0.02011   0.01934   2.92636
   D11        0.82543   0.00014  -0.00272   0.02017   0.01744   0.84286
   D12       -1.27089   0.00072  -0.00141   0.02140   0.02000  -1.25089
   D13        2.90702   0.00003  -0.00077   0.02011   0.01934   2.92636
   D14        0.82543   0.00014  -0.00272   0.02017   0.01744   0.84286
   D15       -1.27089   0.00072  -0.00141   0.02140   0.02000  -1.25089
         Item               Value     Threshold  Converged?
 Maximum Force            0.001484     0.000450     NO 
 RMS     Force            0.000365     0.000300     NO 
 Maximum Displacement     0.021578     0.001800     NO 
 RMS     Displacement     0.007429     0.001200     NO 
 Predicted change in Energy=-2.323406D-05
 GradGradGradGradGradGradGradGradGradGradGradGradGradGradGradGradGradGrad

                          Input orientation:                          
 ---------------------------------------------------------------------
 Center     Atomic      Atomic             Coordinates (Angstroms)
 Number     Number       Type             X           Y           Z
 ---------------------------------------------------------------------
      1          6           0       -0.340160    0.681771    0.453537
      2          6           0        0.340160   -0.681771    0.453537
      3          1           0       -0.082058    2.352942   -0.500894
      4          1           0        0.082058   -2.352942   -0.500894
      5          8           0        0.417042    1.566088   -0.334767
      6          8           0       -0.417042   -1.566088   -0.334767
      7          1           0       -1.345058    0.560251    0.063282
      8          1           0       -0.413636    1.064608    1.468728
      9          1           0        1.345058   -0.560251    0.063282
     10          1           0        0.413636   -1.064608    1.468728
 ---------------------------------------------------------------------
                    Distance matrix (angstroms):
                    1          2          3          4          5
     1  C    0.000000
     2  C    1.523838   0.000000
     3  H    1.941744   3.209158   0.000000
     4  H    3.209158   1.941744   4.708746   0.000000
     5  O    1.405986   2.383318   0.946488   3.936828   0.000000
     6  O    2.383318   1.405986   3.936828   0.946488   3.241331
     7  H    1.084843   2.129525   2.264333   3.292666   2.067643
     8  H    1.087462   2.156075   2.376796   3.975522   2.047950
     9  H    2.129525   1.084843   3.292666   2.264333   2.353927
    10  H    2.156075   1.087462   3.975522   2.376796   3.189540
                    6          7          8          9         10
     6  O    0.000000
     7  H    2.353927   0.000000
     8  H    3.189540   1.759887   0.000000
     9  H    2.067643   2.914146   2.776409   0.000000
    10  H    2.047950   2.776409   2.284280   1.759887   0.000000
 Stoichiometry    C2H6O2
 Framework group  C1[X(C2H6O2)]
 Deg. of freedom    24
 Full point group                 C1      NOp   1
 Largest Abelian subgroup         C1      NOp   1
 Largest concise Abelian subgroup C1      NOp   1
                         Standard orientation:                         
 ---------------------------------------------------------------------
 Center     Atomic      Atomic             Coordinates (Angstroms)
 Number     Number       Type             X           Y           Z
 ---------------------------------------------------------------------
      1          6           0        0.646251    0.390349   -0.403585
      2          6           0       -0.646251    0.390349    0.403585
      3          1           0        2.334413   -0.564083   -0.305919
      4          1           0       -2.334413   -0.564083    0.305919
      5          8           0        1.598704   -0.397955    0.265897
      6          8           0       -1.598704   -0.397955   -0.265897
[...]
 No special actions if energy rises.
 Keep R1 ints in memory in canonical form, NReq=4309202.
 SCF Done:  E(RHF) =  -228.916306801     A.U. after    9 cycles
             Convg  =    0.7592D-08             -V/T =  2.0015
 Calling FoFJK, ICntrl=      2127 FMM=F ISym2X=0 I1Cent= 0 IOpClX= 0 NMat=1 NMatS=1 NMatT=0.
 ***** Axes restored to original set *****
 -------------------------------------------------------------------
 Center     Atomic                   Forces (Hartrees/Bohr)
 Number     Number              X              Y              Z
 -------------------------------------------------------------------
      1        6           0.001406464    0.000467357    0.001605749
      2        6          -0.001406464   -0.000467357    0.001605749
      3        1          -0.000061283   -0.000091670    0.000066776
      4        1           0.000061283    0.000091670    0.000066776
      5        8          -0.000853905   -0.000550644   -0.001629838
      6        8           0.000853905    0.000550644   -0.001629838
      7        1          -0.000003199    0.000051998   -0.000008696
      8        1           0.000070581    0.000016946   -0.000033991
      9        1           0.000003199   -0.000051998   -0.000008696
     10        1          -0.000070581   -0.000016946   -0.000033991
 -------------------------------------------------------------------
 Cartesian Forces:  Max     0.001629838 RMS     0.000752310

 GradGradGradGradGradGradGradGradGradGradGradGradGradGradGradGradGradGrad
 Berny optimization.
 Using GEDIIS/GDIIS optimizer.
 Internal  Forces:  Max     0.001782112 RMS     0.000484180
 Search for a local minimum.
 Step number   8 out of a maximum of   48
 All quantities printed in internal units (Hartrees-Bohrs-Radians)
 Mixed Optimization -- En-DIIS/RFO-DIIS
 Swaping is turned off.
 Update second derivatives using D2CorX and points    3    4    5    6    7
                                                      8
 DE= -8.71D-06 DEPred=-7.89D-06 R= 1.10D+00
 SS=  1.41D+00  RLast= 6.09D-02 DXNew= 1.4270D+00 1.8275D-01
 Trust test= 1.10D+00 RLast= 6.09D-02 DXMaxT set to 8.49D-01
     Eigenvalues ---    0.00270   0.01624   0.02203   0.05419   0.06147
     Eigenvalues ---    0.06649   0.11197   0.13715   0.14351   0.14880
     Eigenvalues ---    0.16000   0.18815   0.22013   0.24589   0.34925
     Eigenvalues ---    0.35009   0.35224   0.35338   0.39363   0.44786
     Eigenvalues ---    0.51262   0.58520   0.588781000.000001000.00000
     Eigenvalues --- 1000.000001000.000001000.000001000.000001000.00000
     Eigenvalues --- 1000.000001000.000001000.000001000.000001000.00000
     Eigenvalues --- 1000.000001000.000001000.00000
 En-DIIS/RFO-DIIS IScMMF=        0 using points:     8    7    6    5
 RFO step:  Lambda=-8.85455112D-07.
 DIIS coeffs:      0.97529      0.09438     -0.28910      0.21944
 Iteration  1 RMS(Cart)=  0.00053381 RMS(Int)=  0.00000040
 Iteration  2 RMS(Cart)=  0.00000020 RMS(Int)=  0.00000036
 Iteration  1 RMS(Cart)=  0.00000046 RMS(Int)=  0.00000046
 Variable       Old X    -DE/DX   Delta X   Delta X   Delta X     New X
                                  (DIIS)     (GDIIS)  (Total)
    R1        2.88065  -0.00035  -0.00050  -0.00038  -0.00088   2.87977
    R2        2.65542  -0.00002  -0.00012   0.00030   0.00017   2.65560
    R3        2.05008   0.00000   0.00000  -0.00002  -0.00002   2.05006
    R4        2.05560  -0.00003   0.00000  -0.00005  -0.00005   2.05555
    R5        2.65542  -0.00002  -0.00012   0.00030   0.00017   2.65560
    R6        2.05008   0.00000   0.00000  -0.00002  -0.00002   2.05006
    R7        2.05560  -0.00003   0.00000  -0.00005  -0.00005   2.05555
    R8        1.78892  -0.00006  -0.00003  -0.00003  -0.00006   1.78886
    R9        1.78892  -0.00006  -0.00003  -0.00003  -0.00006   1.78886
    A1        1.89873  -0.00017  -0.00037  -0.00018  -0.00055   1.89818
    A2        1.89025  -0.00005  -0.00017   0.00092   0.00075   1.89100
    A3        1.92203   0.00018  -0.00009   0.00004  -0.00005   1.92198
    A4        1.94653  -0.00068   0.00022  -0.00020   0.00002   1.94654
    A5        1.91756   0.00072   0.00022  -0.00062  -0.00041   1.91716
    A6        1.88863  -0.00001   0.00019   0.00007   0.00026   1.88889
    A7        1.89873  -0.00017  -0.00037  -0.00018  -0.00055   1.89818
    A8        1.89025  -0.00005  -0.00017   0.00092   0.00075   1.89100
    A9        1.92203   0.00018  -0.00009   0.00004  -0.00005   1.92198
   A10        1.94653  -0.00068   0.00022  -0.00020   0.00002   1.94654
   A11        1.91756   0.00072   0.00022  -0.00062  -0.00041   1.91716
   A12        1.88863  -0.00001   0.00019   0.00007   0.00026   1.88889
   A13        1.91305  -0.00021  -0.00047  -0.00031  -0.00077   1.91228
   A14        1.91305  -0.00021  -0.00047  -0.00031  -0.00077   1.91228
    D1       -1.87378   0.00178   0.00000   0.00000   0.00000  -1.87378
    D2        0.24481   0.00083  -0.00006   0.00020   0.00014   0.24495
    D3        2.30691   0.00089   0.00002   0.00086   0.00087   2.30778
    D4        0.24481   0.00083  -0.00006   0.00020   0.00014   0.24495
    D5        2.36339  -0.00013  -0.00012   0.00040   0.00028   2.36368
    D6       -1.85769  -0.00007  -0.00004   0.00105   0.00101  -1.85667
    D7        2.30691   0.00089   0.00002   0.00086   0.00087   2.30778
    D8       -1.85769  -0.00007  -0.00004   0.00105   0.00101  -1.85667
    D9        0.20441   0.00000   0.00004   0.00171   0.00175   0.20616
   D10        3.02221  -0.00038   0.00013   0.00029   0.00042   3.02263
   D11        0.93840   0.00020   0.00045  -0.00061  -0.00016   0.93823
   D12       -1.15572   0.00017  -0.00007  -0.00016  -0.00023  -1.15595
   D13        3.02221  -0.00038   0.00013   0.00029   0.00042   3.02263
   D14        0.93840   0.00020   0.00045  -0.00061  -0.00016   0.93823
   D15       -1.15572   0.00017  -0.00007  -0.00016  -0.00023  -1.15595
         Item               Value     Threshold  Converged?
 Maximum Force            0.000347     0.000450     YES
 RMS     Force            0.000095     0.000300     YES
 Maximum Displacement     0.001354     0.001800     YES
 RMS     Displacement     0.000534     0.001200     YES
 Predicted change in Energy=-6.086562D-07
 Optimization completed.
    -- Stationary point found.
                           ----------------------------
                           !   Optimized Parameters   !
                           ! (Angstroms and Degrees)  !
 --------------------------                            --------------------------
 ! Name  Definition              Value          Derivative Info.                !
 --------------------------------------------------------------------------------
 ! R1    R(1,2)                  1.5244         -DE/DX =   -0.0003              !
 ! R2    R(1,5)                  1.4052         -DE/DX =    0.0                 !
 ! R3    R(1,7)                  1.0849         -DE/DX =    0.0                 !
 ! R4    R(1,8)                  1.0878         -DE/DX =    0.0                 !
 ! R5    R(2,6)                  1.4052         -DE/DX =    0.0                 !
 ! R6    R(2,9)                  1.0849         -DE/DX =    0.0                 !
 ! R7    R(2,10)                 1.0878         -DE/DX =    0.0                 !
 ! R8    R(3,5)                  0.9467         -DE/DX =   -0.0001              !
 ! R9    R(4,6)                  0.9467         -DE/DX =   -0.0001              !
 ! A1    A(2,1,5)              108.7893         -DE/DX =   -0.0002              !
 ! A2    A(2,1,7)              108.3033         -DE/DX =    0.0                 !
 ! A3    A(2,1,8)              110.1244         -DE/DX =    0.0002              !
 ! A4    A(5,1,7)              111.5278         -DE/DX =   -0.0007              !
 ! A5    A(5,1,8)              109.8683         -DE/DX =    0.0007              !
 ! A6    A(7,1,8)              108.2107         -DE/DX =    0.0                 !
 ! A7    A(1,2,6)              108.7893         -DE/DX =   -0.0002              !
 ! A8    A(1,2,9)              108.3033         -DE/DX =    0.0                 !
 ! A9    A(1,2,10)             110.1244         -DE/DX =    0.0002              !
 ! A10   A(6,2,9)              111.5278         -DE/DX =   -0.0007              !
 ! A11   A(6,2,10)             109.8683         -DE/DX =    0.0007              !
 ! A12   A(9,2,10)             108.2107         -DE/DX =    0.0                 !
 ! A13   A(1,5,3)              109.6099         -DE/DX =   -0.0002              !
 ! A14   A(2,6,4)              109.6099         -DE/DX =   -0.0002              !
 ! D1    D(5,1,2,6)           -107.3596         -DE/DX =    0.0018              !
 ! D2    D(5,1,2,9)             14.0264         -DE/DX =    0.0008              !
 ! D3    D(5,1,2,10)           132.1762         -DE/DX =    0.0009              !
 ! D4    D(7,1,2,6)             14.0264         -DE/DX =    0.0008              !
 ! D5    D(7,1,2,9)            135.4125         -DE/DX =   -0.0001              !
 ! D6    D(7,1,2,10)          -106.4377         -DE/DX =   -0.0001              !
 ! D7    D(8,1,2,6)            132.1762         -DE/DX =    0.0009              !
 ! D8    D(8,1,2,9)           -106.4377         -DE/DX =   -0.0001              !
 ! D9    D(8,1,2,10)            11.7121         -DE/DX =    0.0                 !
 ! D10   D(2,1,5,3)            173.1599         -DE/DX =   -0.0004              !
 ! D11   D(7,1,5,3)             53.7661         -DE/DX =    0.0002              !
 ! D12   D(8,1,5,3)            -66.2181         -DE/DX =    0.0002              !
 ! D13   D(1,2,6,4)            173.1599         -DE/DX =   -0.0004              !
 ! D14   D(9,2,6,4)             53.7661         -DE/DX =    0.0002              !
 ! D15   D(10,2,6,4)           -66.2181         -DE/DX =    0.0002              !
 --------------------------------------------------------------------------------
 GradGradGradGradGradGradGradGradGradGradGradGradGradGradGradGradGradGrad

                          Input orientation:                          
 ---------------------------------------------------------------------
 Center     Atomic      Atomic             Coordinates (Angstroms)
 Number     Number       Type             X           Y           Z
 ---------------------------------------------------------------------
      1          6           0       -0.344873    0.679698    0.439053
      2          6           0        0.344873   -0.679698    0.439053
      3          1           0       -0.064279    2.384287   -0.443697
      4          1           0        0.064279   -2.384287   -0.443697
      5          8           0        0.406188    1.568303   -0.348883
      6          8           0       -0.406188   -1.568303   -0.348883
      7          1           0       -1.348877    0.552318    0.048328
      8          1           0       -0.421287    1.060606    1.455086
      9          1           0        1.348877   -0.552318    0.048328
     10          1           0        0.421287   -1.060606    1.455086
 ---------------------------------------------------------------------
                    Distance matrix (angstroms):
                    1          2          3          4          5
     1  C    0.000000
     2  C    1.524372   0.000000
     3  H    1.940000   3.214756   0.000000
     4  H    3.214756   1.940000   4.770306   0.000000
     5  O    1.405188   2.382879   0.946657   3.968483   0.000000
     6  O    2.382879   1.405188   3.968483   0.946657   3.240100
     7  H    1.084857   2.130568   2.290937   3.295868   2.066460
     8  H    1.087774   2.155918   2.342000   3.963387   2.048603
     9  H    2.130568   1.084857   3.295868   2.290937   2.354457
    10  H    2.155918   1.087774   3.963387   2.342000   3.188368
                    6          7          8          9         10
     6  O    0.000000
     7  H    2.354457   0.000000
     8  H    3.188368   1.760042   0.000000
     9  H    2.066460   2.915149   2.777403   0.000000
    10  H    2.048603   2.777403   2.282426   1.760042   0.000000
 Stoichiometry    C2H6O2
 Framework group  C1[X(C2H6O2)]
 Deg. of freedom    24
 Full point group                 C1      NOp   1
 Largest Abelian subgroup         C1      NOp   1
 Largest concise Abelian subgroup C1      NOp   1
                         Standard orientation:                         
 ---------------------------------------------------------------------
 Center     Atomic      Atomic             Coordinates (Angstroms)
 Number     Number       Type             X           Y           Z
 ---------------------------------------------------------------------
      1          6           0        0.645614    0.385937   -0.405105
      2          6           0       -0.645614    0.385937    0.405105
      3          1           0        2.368627   -0.496813   -0.280285
      4          1           0       -2.368627   -0.496813    0.280285
      5          8           0        1.598682   -0.401999    0.262258
      6          8           0       -1.598682   -0.401999   -0.262258
      7          1           0        0.427689   -0.004788   -1.393415
      8          1           0        1.018020    1.401970   -0.515755
      9          1           0       -0.427689   -0.004788    1.393415
     10          1           0       -1.018020    1.401970    0.515755
 ---------------------------------------------------------------------
 Rotational constants (GHZ):     21.2632972      4.3463772      4.2535560

 **********************************************************************

            Population analysis using the SCF density.

 **********************************************************************

 Orbital symmetries:
       Occupied  (A) (A) (A) (A) (A) (A) (A) (A) (A) (A) (A) (A)
                 (A) (A) (A) (A) (A)
       Virtual   (A) (A) (A) (A) (A) (A) (A) (A) (A) (A) (A) (A)
                 (A) (A) (A) (A) (A) (A) (A) (A) (A) (A) (A) (A)
                 (A) (A) (A) (A) (A) (A) (A) (A) (A) (A) (A) (A)
                 (A) (A) (A) (A) (A) (A) (A) (A) (A) (A) (A) (A)
                 (A) (A) (A) (A) (A) (A) (A)
 The electronic state is 1-A.
 Alpha  occ. eigenvalues --  -20.55471 -20.55471 -11.26937 -11.26876  -1.36916
 Alpha  occ. eigenvalues --   -1.35354  -0.99717  -0.83312  -0.71893  -0.70007
 Alpha  occ. eigenvalues --   -0.62111  -0.59386  -0.58469  -0.52742  -0.47389
 Alpha  occ. eigenvalues --   -0.44700  -0.43353
 Alpha virt. eigenvalues --    0.22840   0.22923   0.28944   0.30993   0.31729
 Alpha virt. eigenvalues --    0.35230   0.39452   0.41424   0.45205   0.75592
 Alpha virt. eigenvalues --    0.80326   0.81419   0.85809   0.87626   0.96038
 Alpha virt. eigenvalues --    1.07962   1.11187   1.11767   1.12876   1.13454
 Alpha virt. eigenvalues --    1.17062   1.21473   1.23890   1.24153   1.29484
 Alpha virt. eigenvalues --    1.31132   1.43011   1.48560   1.49406   1.72650
 Alpha virt. eigenvalues --    1.75467   1.81000   1.93522   1.99217   2.05784
 Alpha virt. eigenvalues --    2.11438   2.12137   2.26188   2.35350   2.40321
 Alpha virt. eigenvalues --    2.42790   2.48060   2.67946   2.69336   2.75975
 Alpha virt. eigenvalues --    2.80624   2.85148   2.96703   2.97865   3.21529
 Alpha virt. eigenvalues --    3.21817   4.11963   4.24240   4.61818   4.88538
          Condensed to atoms (all electrons):
              1          2          3          4          5          6
     1  C    4.817824   0.342436  -0.023155   0.006286   0.214146  -0.049460
     2  C    0.342436   4.817824   0.006286  -0.023155  -0.049460   0.214146
     3  H   -0.023155   0.006286   0.321957   0.000011   0.262753  -0.000172
     4  H    0.006286  -0.023155   0.000011   0.321957  -0.000172   0.262753
     5  O    0.214146  -0.049460   0.262753  -0.000172   8.387416   0.001618
     6  O   -0.049460   0.214146  -0.000172   0.262753   0.001618   8.387416
     7  H    0.398320  -0.045048  -0.004417   0.000021  -0.034674   0.001460
     8  H    0.395616  -0.046180  -0.002398  -0.000257  -0.042930   0.002582
     9  H   -0.045048   0.398320   0.000021  -0.004417   0.001460  -0.034674
    10  H   -0.046180   0.395616  -0.000257  -0.002398   0.002582  -0.042930
              7          8          9         10
     1  C    0.398320   0.395616  -0.045048  -0.046180
     2  C   -0.045048  -0.046180   0.398320   0.395616
     3  H   -0.004417  -0.002398   0.000021  -0.000257
     4  H    0.000021  -0.000257  -0.004417  -0.002398
     5  O   -0.034674  -0.042930   0.001460   0.002582
     6  O    0.001460   0.002582  -0.034674  -0.042930
     7  H    0.543993  -0.040217   0.004067   0.002466
     8  H   -0.040217   0.591597   0.002466  -0.000401
     9  H    0.004067   0.002466   0.543993  -0.040217
    10  H    0.002466  -0.000401  -0.040217   0.591597
 Mulliken atomic charges:
              1
     1  C   -0.010785
     2  C   -0.010785
     3  H    0.439372
     4  H    0.439372
     5  O   -0.742738
     6  O   -0.742738
     7  H    0.174029
     8  H    0.140122
     9  H    0.174029
    10  H    0.140122
 Sum of Mulliken atomic charges =   0.00000
 Mulliken charges with hydrogens summed into heavy atoms:
              1
     1  C    0.303367
     2  C    0.303367
     5  O   -0.303367
     6  O   -0.303367
 Sum of Mulliken charges with hydrogens summed into heavy atoms =   0.00000
 Electronic spatial extent (au):  <R**2>=            322.7451
 Charge=              0.0000 electrons
 Dipole moment (field-independent basis, Debye):
    X=              0.0000    Y=              1.2924    Z=              0.0000  Tot=              1.2924
 Quadrupole moment (field-independent basis, Debye-Ang):
   XX=            -18.7281   YY=            -25.4787   ZZ=            -24.8837
   XY=              0.0000   XZ=             -6.3873   YZ=              0.0000
 Traceless Quadrupole moment (field-independent basis, Debye-Ang):
   XX=              4.3020   YY=             -2.4485   ZZ=             -1.8535
   XY=              0.0000   XZ=             -6.3873   YZ=              0.0000
 Octapole moment (field-independent basis, Debye-Ang**2):
  XXX=              0.0000  YYY=             -1.6941  ZZZ=              0.0000  XYY=              0.0000
  XXY=             -5.2230  XXZ=              0.0000  XZZ=              0.0000  YZZ=             -1.3603
  YYZ=              0.0000  XYZ=              2.5751
 Hexadecapole moment (field-independent basis, Debye-Ang**3):
 XXXX=           -174.9551 YYYY=            -60.6516 ZZZZ=            -55.0747 XXXY=              0.0000
 XXXZ=            -25.3464 YYYX=              0.0000 YYYZ=              0.0000 ZZZX=             -0.8909
 ZZZY=              0.0000 XXYY=            -50.7049 XXZZ=            -53.4668 YYZZ=            -19.9546
 XXYZ=              0.0000 YYXZ=             -1.2462 ZZXY=              0.0000
 N-N= 1.318550751305D+02 E-N=-8.035068269395D+02  KE= 2.285661386529D+02
 1\1\GINC-NODE7\FOpt\RHF\6-31G(d)\C2H6O2\WUCH\03-Sep-2010\0\\#HF/6-31G*
  Opt=ModRed MaxDisk=64GB\\12-ethanediol Rotatable Bond Optimization on
  node7.bme.utexas.edu\\0,1\C,-0.3448734718,0.6796984596,0.4390526478\C
 ,0.3448734726,-0.6796984601,0.4390526461\H,-0.0642787459,2.3842865715,
 -0.4436974498\H,0.0642787441,-2.3842865699,-0.4436974538\O,0.406188285
 9,1.5683027007,-0.3488829916\O,-0.4061882927,-1.5683027035,-0.34888298
 32\H,-1.348876826,0.5523177779,0.048328045\H,-0.4212872192,1.060605586
 3,1.4550857543\H,1.3488768224,-0.5523177784,0.0483280325\H,0.421287230
 6,-1.0606055841,1.4550857528\\Version=EM64L-G09RevA.02\State=1-A\HF=-2
 28.9163068\RMSD=7.592e-09\RMSF=7.523e-04\Dipole=0.,0.,0.5084861\Quadru
 pole=-2.1983337,4.0187557,-1.8204221,-4.2572273,0.,0.\PG=C01 [X(C2H6O2
 )]\\@


 IT IS NOT EASY TO DESCRIBE
     THE SEA WITH THE MOUTH

                   -- KOKYU
 Job cpu time:  0 days  0 hours  0 minutes 48.6 seconds.
 File lengths (MBytes):  RWF=      5 Int=      0 D2E=      0 Chk=      2 Scr=      1
 Normal termination of Gaussian 09 at Fri Sep  3 18:57:39 2010.
