 Entering Gaussian System, Link 0=/opt/g09/gaussian/g09/bin/g09
 Input=12-ethanediol-opt-5-1-2-6-013.com
 Output=12-ethanediol-opt-5-1-2-6-013.log
 Initial command:
 /opt/g09/gaussian/g09/bin/l1.exe /scratch/Gau-12-ethanediol/Gau-28884.inp -scrdir=/scratch/Gau-12-ethanediol/
 Entering Link 1 = /opt/g09/gaussian/g09/bin/l1.exe PID=     28885.
  
 Copyright (c) 1988,1990,1992,1993,1995,1998,2003,2009, Gaussian, Inc.
                  All Rights Reserved.
  
 This is part of the Gaussian(R) 09 program.  It is based on
 the Gaussian(R) 03 system (copyright 2003, Gaussian, Inc.),
 the Gaussian(R) 98 system (copyright 1998, Gaussian, Inc.),
 the Gaussian(R) 94 system (copyright 1995, Gaussian, Inc.),
 the Gaussian 92(TM) system (copyright 1992, Gaussian, Inc.),
 the Gaussian 90(TM) system (copyright 1990, Gaussian, Inc.),
 the Gaussian 88(TM) system (copyright 1988, Gaussian, Inc.),
 the Gaussian 86(TM) system (copyright 1986, Carnegie Mellon
 University), and the Gaussian 82(TM) system (copyright 1983,
 Carnegie Mellon University). Gaussian is a federally registered
 trademark of Gaussian, Inc.
  
 This software contains proprietary and confidential information,
 including trade secrets, belonging to Gaussian, Inc.
  
 This software is provided under written license and may be
 used, copied, transmitted, or stored only in accord with that
 written license.
  
 The following legend is applicable only to US Government
 contracts under FAR:
  
                    RESTRICTED RIGHTS LEGEND
  
 Use, reproduction and disclosure by the US Government is
 subject to restrictions as set forth in subparagraphs (a)
 and (c) of the Commercial Computer Software - Restricted
 Rights clause in FAR 52.227-19.
  
 Gaussian, Inc.
 340 Quinnipiac St., Bldg. 40, Wallingford CT 06492
  
  
 ---------------------------------------------------------------
 Warning -- This program may not be used in any manner that
 competes with the business of Gaussian, Inc. or will provide
 assistance to any competitor of Gaussian, Inc.  The licensee
 of this program is prohibited from giving any competitor of
 Gaussian, Inc. access to this program.  By using this program,
 the user acknowledges that Gaussian, Inc. is engaged in the
 business of creating and licensing software in the field of
 computational chemistry and represents and warrants to the
 licensee that it is not a competitor of Gaussian, Inc. and that
 it will not use this program in any manner prohibited above.
 ---------------------------------------------------------------
  

 Cite this work as:
 Gaussian 09, Revision A.02,
 M. J. Frisch, G. W. Trucks, H. B. Schlegel, G. E. Scuseria, 
 M. A. Robb, J. R. Cheeseman, G. Scalmani, V. Barone, B. Mennucci, 
 G. A. Petersson, H. Nakatsuji, M. Caricato, X. Li, H. P. Hratchian, 
 A. F. Izmaylov, J. Bloino, G. Zheng, J. L. Sonnenberg, M. Hada, 
 M. Ehara, K. Toyota, R. Fukuda, J. Hasegawa, M. Ishida, T. Nakajima, 
 Y. Honda, O. Kitao, H. Nakai, T. Vreven, J. A. Montgomery, Jr., 
 J. E. Peralta, F. Ogliaro, M. Bearpark, J. J. Heyd, E. Brothers, 
 K. N. Kudin, V. N. Staroverov, R. Kobayashi, J. Normand, 
 K. Raghavachari, A. Rendell, J. C. Burant, S. S. Iyengar, J. Tomasi, 
 M. Cossi, N. Rega, J. M. Millam, M. Klene, J. E. Knox, J. B. Cross, 
 V. Bakken, C. Adamo, J. Jaramillo, R. Gomperts, R. E. Stratmann, 
 O. Yazyev, A. J. Austin, R. Cammi, C. Pomelli, J. W. Ochterski, 
 R. L. Martin, K. Morokuma, V. G. Zakrzewski, G. A. Voth, 
 P. Salvador, J. J. Dannenberg, S. Dapprich, A. D. Daniels, 
 O. Farkas, J. B. Foresman, J. V. Ortiz, J. Cioslowski, 
 and D. J. Fox, Gaussian, Inc., Wallingford CT, 2009.
 
 ******************************************
 Gaussian 09:  EM64L-G09RevA.02 11-Jun-2009
                 3-Sep-2010 
 ******************************************
 %RWF=/scratch/Gau-12-ethanediol/,64GB
 %Chk=12-ethanediol-opt-5-1-2-6-013.chk
 %Mem=778484KB
 %Nproc=1
 Will use up to    1 processors via shared memory.
 ----------------------------------
 #HF/6-31G* Opt=ModRed MaxDisk=64GB
 ----------------------------------
 1/18=120,19=15,38=1/1,3;
 2/9=110,12=2,17=6,18=5,40=1/2;
 3/5=1,6=6,7=1,11=9,16=1,25=1,30=1,71=1/1,2,3;
 4//1;
 5/5=2,38=5/2;
 6/7=2,8=2,9=2,10=2,28=1/1;
 7//1,2,3,16;
 1/18=20,19=15/3(2);
 2/9=110/2;
 99//99;
 2/9=110/2;
 3/5=1,6=6,7=1,11=9,16=1,25=1,30=1,71=1/1,2,3;
 4/5=5,16=3/1;
 5/5=2,38=5/2;
 7//1,2,3,16;
 1/18=20,19=15/3(-5);
 2/9=110/2;
 6/7=2,8=2,9=2,10=2,19=2,28=1/1;
 99/9=1/99;
 -----------------------------------------------------------------
 12-ethanediol Rotatable Bond Optimization on node7.bme.utexas.edu
 -----------------------------------------------------------------
 Symbolic Z-matrix:
 Charge =  0 Multiplicity = 1
 C                     0.17703   0.73891   0.58928 
 C                    -0.17703  -0.73891   0.58928 
 H                     0.0809    2.2214   -0.63808 
 H                    -0.0809   -2.2214   -0.63808 
 O                    -0.17703   1.31096  -0.63443 
 O                     0.17703  -1.31096  -0.63443 
 H                    -0.3338    1.21472   1.42514 
 H                     1.24808   0.84586   0.75268 
 H                     0.3338   -1.21472   1.42514 
 H                    -1.24808  -0.84586   0.75268 
 
 The following ModRedundant input section has been read:
 D    5    1    2    6 12.640 F                                                
 Iteration  1 RMS(Cart)=  0.02176097 RMS(Int)=  0.07458380
 Iteration  2 RMS(Cart)=  0.00784044 RMS(Int)=  0.07173100
 Iteration  3 RMS(Cart)=  0.00289616 RMS(Int)=  0.07083866
 Iteration  4 RMS(Cart)=  0.00107401 RMS(Int)=  0.07053150
 Iteration  5 RMS(Cart)=  0.00039859 RMS(Int)=  0.07042085
 Iteration  6 RMS(Cart)=  0.00014795 RMS(Int)=  0.07038024
 Iteration  7 RMS(Cart)=  0.00005492 RMS(Int)=  0.07036523
 Iteration  8 RMS(Cart)=  0.00002039 RMS(Int)=  0.07035966
 Iteration  9 RMS(Cart)=  0.00000757 RMS(Int)=  0.07035760
 Iteration 10 RMS(Cart)=  0.00000281 RMS(Int)=  0.07035683
 Iteration 11 RMS(Cart)=  0.00000104 RMS(Int)=  0.07035655
 Iteration 12 RMS(Cart)=  0.00000039 RMS(Int)=  0.07035644
 Iteration  1 RMS(Cart)=  0.02131899 RMS(Int)=  0.05601373
 Iteration  2 RMS(Cart)=  0.02110250 RMS(Int)=  0.05220115
 Iteration  3 RMS(Cart)=  0.02091807 RMS(Int)=  0.05559179
 Iteration  4 RMS(Cart)=  0.01907231 RMS(Int)=  0.06411210
 Iteration  5 RMS(Cart)=  0.01197165 RMS(Int)=  0.07134658
 Iteration  6 RMS(Cart)=  0.00753612 RMS(Int)=  0.07643642
 Iteration  7 RMS(Cart)=  0.00475135 RMS(Int)=  0.07981597
 Iteration  8 RMS(Cart)=  0.00299824 RMS(Int)=  0.08200753
 Iteration  9 RMS(Cart)=  0.00189294 RMS(Int)=  0.08341267
 Iteration 10 RMS(Cart)=  0.00119547 RMS(Int)=  0.08430819
 Iteration 11 RMS(Cart)=  0.00075513 RMS(Int)=  0.08487697
 Iteration 12 RMS(Cart)=  0.00047704 RMS(Int)=  0.08523751
 Iteration 13 RMS(Cart)=  0.00030138 RMS(Int)=  0.08546577
 Iteration 14 RMS(Cart)=  0.00019042 RMS(Int)=  0.08561017
 Iteration 15 RMS(Cart)=  0.00012031 RMS(Int)=  0.08570148
 Iteration 16 RMS(Cart)=  0.00007602 RMS(Int)=  0.08575921
 Iteration 17 RMS(Cart)=  0.00004803 RMS(Int)=  0.08579569
 Iteration 18 RMS(Cart)=  0.00003035 RMS(Int)=  0.08581875
 Iteration 19 RMS(Cart)=  0.00001917 RMS(Int)=  0.08583332
 Iteration 20 RMS(Cart)=  0.00001212 RMS(Int)=  0.08584253
 Iteration 21 RMS(Cart)=  0.00000766 RMS(Int)=  0.08584835
 Iteration 22 RMS(Cart)=  0.00000484 RMS(Int)=  0.08585202
 Iteration 23 RMS(Cart)=  0.00000306 RMS(Int)=  0.08585435
 Iteration 24 RMS(Cart)=  0.00000193 RMS(Int)=  0.08585581
 Iteration 25 RMS(Cart)=  0.00000122 RMS(Int)=  0.08585674
 Iteration 26 RMS(Cart)=  0.00000077 RMS(Int)=  0.08585733

 GradGradGradGradGradGradGradGradGradGradGradGradGradGradGradGradGradGrad
 Berny optimization.
 Initialization pass.
                           ----------------------------
                           !    Initial Parameters    !
                           ! (Angstroms and Degrees)  !
 --------------------------                            --------------------------
 ! Name  Definition              Value          Derivative Info.                !
 --------------------------------------------------------------------------------
 ! R1    R(1,2)                  1.5209         estimate D2E/DX2                !
 ! R2    R(1,5)                  1.399          estimate D2E/DX2                !
 ! R3    R(1,7)                  1.0891         estimate D2E/DX2                !
 ! R4    R(1,8)                  1.089          estimate D2E/DX2                !
 ! R5    R(2,6)                  1.399          estimate D2E/DX2                !
 ! R6    R(2,9)                  1.0891         estimate D2E/DX2                !
 ! R7    R(2,10)                 1.089          estimate D2E/DX2                !
 ! R8    R(3,5)                  0.9463         estimate D2E/DX2                !
 ! R9    R(4,6)                  0.9463         estimate D2E/DX2                !
 ! A1    A(2,1,5)              109.558          estimate D2E/DX2                !
 ! A2    A(2,1,7)              110.6303         estimate D2E/DX2                !
 ! A3    A(2,1,8)              106.0195         estimate D2E/DX2                !
 ! A4    A(5,1,7)              122.8543         estimate D2E/DX2                !
 ! A5    A(5,1,8)               97.9751         estimate D2E/DX2                !
 ! A6    A(7,1,8)              107.891          estimate D2E/DX2                !
 ! A7    A(1,2,6)              109.558          estimate D2E/DX2                !
 ! A8    A(1,2,9)              110.6303         estimate D2E/DX2                !
 ! A9    A(1,2,10)             106.0195         estimate D2E/DX2                !
 ! A10   A(6,2,9)              122.8543         estimate D2E/DX2                !
 ! A11   A(6,2,10)              97.9751         estimate D2E/DX2                !
 ! A12   A(9,2,10)             107.891          estimate D2E/DX2                !
 ! A13   A(1,5,3)              109.1163         estimate D2E/DX2                !
 ! A14   A(2,6,4)              109.1163         estimate D2E/DX2                !
 ! D1    D(5,1,2,6)             12.6403         Frozen                          !
 ! D2    D(5,1,2,9)            151.137          estimate D2E/DX2                !
 ! D3    D(5,1,2,10)           -92.1443         estimate D2E/DX2                !
 ! D4    D(7,1,2,6)            151.137          estimate D2E/DX2                !
 ! D5    D(7,1,2,9)            -70.3663         estimate D2E/DX2                !
 ! D6    D(7,1,2,10)            46.3524         estimate D2E/DX2                !
 ! D7    D(8,1,2,6)            -92.1443         estimate D2E/DX2                !
 ! D8    D(8,1,2,9)             46.3524         estimate D2E/DX2                !
 ! D9    D(8,1,2,10)           163.0712         estimate D2E/DX2                !
 ! D10   D(2,1,5,3)           -170.4107         estimate D2E/DX2                !
 ! D11   D(7,1,5,3)             57.1718         estimate D2E/DX2                !
 ! D12   D(8,1,5,3)            -60.1988         estimate D2E/DX2                !
 ! D13   D(1,2,6,4)           -170.4107         estimate D2E/DX2                !
 ! D14   D(9,2,6,4)             57.1718         estimate D2E/DX2                !
 ! D15   D(10,2,6,4)           -60.1988         estimate D2E/DX2                !
 --------------------------------------------------------------------------------
 Trust Radius=3.00D-01 FncErr=1.00D-07 GrdErr=1.00D-07
 Number of steps in this run=  48 maximum allowed number of steps= 100.
 GradGradGradGradGradGradGradGradGradGradGradGradGradGradGradGradGradGrad

                          Input orientation:                          
 ---------------------------------------------------------------------
 Center     Atomic      Atomic             Coordinates (Angstroms)
 Number     Number       Type             X           Y           Z
 ---------------------------------------------------------------------
      1          6           0        0.074401    0.756807    0.628264
      2          6           0       -0.074401   -0.756807    0.628264
      3          1           0        0.214897    2.152601   -0.695333
      4          1           0       -0.214897   -2.152601   -0.695333
      5          8           0       -0.024205    1.237097   -0.682030
      6          8           0        0.024205   -1.237097   -0.682030
      7          1           0       -0.472551    1.196174    1.461355
      8          1           0        1.134193    0.954608    0.782341
      9          1           0        0.472551   -1.196174    1.461355
     10          1           0       -1.134193   -0.954608    0.782341
 ---------------------------------------------------------------------
                    Distance matrix (angstroms):
                    1          2          3          4          5
     1  C    0.000000
     2  C    1.520911   0.000000
     3  H    1.928701   3.209401   0.000000
     4  H    3.209401   1.928701   4.326601   0.000000
     5  O    1.399025   2.386429   0.946305   3.395083   0.000000
     6  O    2.386429   1.399025   3.395083   0.946305   2.474667
     7  H    1.089147   2.160255   2.457365   3.991489   2.190157
     8  H    1.089048   2.100805   2.112774   3.695715   1.888404
     9  H    2.160255   1.089147   3.991489   2.457365   3.280499
    10  H    2.100805   1.089048   3.695715   2.112774   2.860074
                    6          7          8          9         10
     6  O    0.000000
     7  H    3.280499   0.000000
     8  H    2.860074   1.760977   0.000000
     9  H    2.190157   2.572265   2.350467   0.000000
    10  H    1.888404   2.350467   2.964909   1.760977   0.000000
 Stoichiometry    C2H6O2
 Framework group  C2[X(C2H6O2)]
 Deg. of freedom    13
 Full point group                 C2      NOp   2
 Largest Abelian subgroup         C2      NOp   2
 Largest concise Abelian subgroup C2      NOp   2
                         Standard orientation:                         
 ---------------------------------------------------------------------
 Center     Atomic      Atomic             Coordinates (Angstroms)
 Number     Number       Type             X           Y           Z
 ---------------------------------------------------------------------
      1          6           0        0.055331    0.758440    0.636399
      2          6           0       -0.055331   -0.758440    0.636399
      3          1           0        0.160655    2.157327   -0.687198
      4          1           0       -0.160655   -2.157327   -0.687198
      5          8           0       -0.055331    1.236096   -0.673895
      6          8           0        0.055331   -1.236096   -0.673895
      7          1           0       -0.502505    1.183903    1.469490
      8          1           0        1.109810    0.982849    0.790476
      9          1           0        0.502505   -1.183903    1.469490
     10          1           0       -1.109810   -0.982849    0.790476
 ---------------------------------------------------------------------
 Rotational constants (GHZ):     14.9225444      6.3131223      4.7013690
 Standard basis: 6-31G(d) (6D, 7F)
 There are    36 symmetry adapted basis functions of A   symmetry.
 There are    36 symmetry adapted basis functions of B   symmetry.
 Integral buffers will be    131072 words long.
 Raffenetti 1 integral format.
 Two-electron integral symmetry is turned on.
    72 basis functions,   136 primitive gaussians,    72 cartesian basis functions
    17 alpha electrons       17 beta electrons
       nuclear repulsion energy       135.0777868281 Hartrees.
 NAtoms=   10 NActive=   10 NUniq=    5 SFac= 3.00D+00 NAtFMM=   80 NAOKFM=F Big=F
 One-electron integrals computed using PRISM.
 NBasis=    72 RedAO= T  NBF=    36    36
 NBsUse=    72 1.00D-06 NBFU=    36    36
 Harris functional with IExCor=  205 diagonalized for initial guess.
 ExpMin= 1.61D-01 ExpMax= 5.48D+03 ExpMxC= 8.25D+02 IAcc=1 IRadAn=         1 AccDes= 0.00D+00
 HarFok:  IExCor=  205 AccDes= 0.00D+00 IRadAn=         1 IDoV= 1
 ScaDFX=  1.000000  1.000000  1.000000  1.000000
 FoFCou: FMM=F IPFlag=           0 FMFlag=      100000 FMFlg1=           0
         NFxFlg=           0 DoJE=T BraDBF=F KetDBF=T FulRan=T
         Omega=  0.000000  0.000000  1.000000  0.000000  0.000000 ICntrl=     500 IOpCl=  0
         NMat0=    1 NMatS0=    1 NMatT0=    0 NMatD0=    1 NMtDS0=    0 NMtDT0=    0
         I1Cent=           4 NGrid=           0.
 Petite list used in FoFCou.
 Initial guess orbital symmetries:
       Occupied  (B) (A) (A) (B) (A) (B) (A) (B) (A) (B) (B) (A)
                 (A) (B) (A) (B) (A)
       Virtual   (A) (B) (A) (B) (A) (B) (B) (A) (B) (A) (B) (A)
                 (B) (B) (A) (A) (A) (B) (B) (A) (A) (B) (B) (A)
                 (A) (B) (A) (B) (B) (A) (B) (A) (B) (A) (B) (A)
                 (B) (A) (A) (B) (A) (B) (A) (B) (B) (A) (A) (B)
                 (B) (A) (B) (A) (B) (A) (B)
 The electronic state of the initial guess is 1-A.
 Requested convergence on RMS density matrix=1.00D-08 within 128 cycles.
 Requested convergence on MAX density matrix=1.00D-06.
 Requested convergence on             energy=1.00D-06.
 No special actions if energy rises.
 Keep R1 ints in memory in canonical form, NReq=4309302.
 SCF Done:  E(RHF) =  -228.883929614     A.U. after   12 cycles
             Convg  =    0.2064D-08             -V/T =  2.0013

 **********************************************************************

            Population analysis using the SCF density.

 **********************************************************************

 Orbital symmetries:
       Occupied  (B) (A) (A) (B) (A) (B) (A) (B) (A) (B) (B) (A)
                 (A) (B) (A) (B) (A)
       Virtual   (A) (B) (A) (B) (B) (A) (A) (B) (B) (A) (A) (B)
                 (B) (A) (B) (A) (A) (B) (A) (B) (A) (B) (B) (A)
                 (B) (A) (A) (B) (B) (A) (B) (A) (B) (B) (A) (A)
                 (B) (A) (B) (A) (A) (B) (A) (B) (B) (A) (A) (B)
                 (B) (A) (B) (A) (B) (A) (B)
 The electronic state is 1-A.
 Alpha  occ. eigenvalues --  -20.54800 -20.54800 -11.27115 -11.27052  -1.37240
 Alpha  occ. eigenvalues --   -1.34389  -0.99931  -0.82785  -0.72874  -0.66898
 Alpha  occ. eigenvalues --   -0.64452  -0.60238  -0.57315  -0.50509  -0.47873
 Alpha  occ. eigenvalues --   -0.44843  -0.40523
 Alpha virt. eigenvalues --    0.21371   0.24877   0.27013   0.29330   0.33335
 Alpha virt. eigenvalues --    0.33470   0.39057   0.42153   0.46814   0.74948
 Alpha virt. eigenvalues --    0.80900   0.81913   0.83407   0.90153   0.93268
 Alpha virt. eigenvalues --    1.04997   1.09014   1.11288   1.13508   1.14966
 Alpha virt. eigenvalues --    1.19651   1.20883   1.23791   1.29944   1.31817
 Alpha virt. eigenvalues --    1.33380   1.41171   1.48567   1.66150   1.67609
 Alpha virt. eigenvalues --    1.74918   1.80693   1.97709   2.02476   2.03259
 Alpha virt. eigenvalues --    2.10758   2.12240   2.22578   2.32461   2.34033
 Alpha virt. eigenvalues --    2.52307   2.63564   2.65088   2.68302   2.74308
 Alpha virt. eigenvalues --    2.81901   2.85352   2.91343   3.10358   3.17617
 Alpha virt. eigenvalues --    3.27811   4.12070   4.34702   4.61348   4.86878
          Condensed to atoms (all electrons):
              1          2          3          4          5          6
     1  C    4.804241   0.345572  -0.023504   0.006208   0.220243  -0.048999
     2  C    0.345572   4.804241   0.006208  -0.023504  -0.048999   0.220243
     3  H   -0.023504   0.006208   0.325906   0.000013   0.262699   0.000111
     4  H    0.006208  -0.023504   0.000013   0.325906   0.000111   0.262699
     5  O    0.220243  -0.048999   0.262699   0.000111   8.371563  -0.006098
     6  O   -0.048999   0.220243   0.000111   0.262699  -0.006098   8.371563
     7  H    0.383597  -0.046271  -0.002860  -0.000131  -0.023040   0.002333
     8  H    0.417855  -0.051152  -0.005513  -0.000255  -0.065310   0.000870
     9  H   -0.046271   0.383597  -0.000131  -0.002860   0.002333  -0.023040
    10  H   -0.051152   0.417855  -0.000255  -0.005513   0.000870  -0.065310
              7          8          9         10
     1  C    0.383597   0.417855  -0.046271  -0.051152
     2  C   -0.046271  -0.051152   0.383597   0.417855
     3  H   -0.002860  -0.005513  -0.000131  -0.000255
     4  H   -0.000131  -0.000255  -0.002860  -0.005513
     5  O   -0.023040  -0.065310   0.002333   0.000870
     6  O    0.002333   0.000870  -0.023040  -0.065310
     7  H    0.585985  -0.047079   0.003686  -0.005971
     8  H   -0.047079   0.614863  -0.005971   0.006605
     9  H    0.003686  -0.005971   0.585985  -0.047079
    10  H   -0.005971   0.006605  -0.047079   0.614863
 Mulliken atomic charges:
              1
     1  C   -0.007791
     2  C   -0.007791
     3  H    0.437325
     4  H    0.437325
     5  O   -0.714372
     6  O   -0.714372
     7  H    0.149751
     8  H    0.135087
     9  H    0.149751
    10  H    0.135087
 Sum of Mulliken atomic charges =   0.00000
 Mulliken charges with hydrogens summed into heavy atoms:
              1
     1  C    0.277047
     2  C    0.277047
     5  O   -0.277047
     6  O   -0.277047
 Sum of Mulliken charges with hydrogens summed into heavy atoms =   0.00000
 Electronic spatial extent (au):  <R**2>=            289.6057
 Charge=              0.0000 electrons
 Dipole moment (field-independent basis, Debye):
    X=              0.0000    Y=              0.0000    Z=              2.5852  Tot=              2.5852
 Quadrupole moment (field-independent basis, Debye-Ang):
   XX=            -25.5479   YY=            -15.3402   ZZ=            -26.1640
   XY=              1.9187   XZ=              0.0000   YZ=              0.0000
 Traceless Quadrupole moment (field-independent basis, Debye-Ang):
   XX=             -3.1972   YY=              7.0105   ZZ=             -3.8133
   XY=              1.9187   XZ=              0.0000   YZ=              0.0000
 Octapole moment (field-independent basis, Debye-Ang**2):
  XXX=              0.0000  YYY=              0.0000  ZZZ=             -2.8221  XYY=              0.0000
  XXY=              0.0000  XXZ=             -1.3327  XZZ=              0.0000  YZZ=              0.0000
  YYZ=             -7.3693  XYZ=             -2.3062
 Hexadecapole moment (field-independent basis, Debye-Ang**3):
 XXXX=            -36.0774 YYYY=           -130.8022 ZZZZ=           -103.5968 XXXY=             -1.4287
 XXXZ=              0.0000 YYYX=              5.9622 YYYZ=              0.0000 ZZZX=              0.0000
 ZZZY=              0.0000 XXYY=            -40.6918 XXZZ=            -24.3014 YYZZ=            -46.9146
 XXYZ=              0.0000 YYXZ=              0.0000 ZZXY=             -1.0480
 N-N= 1.350777868281D+02 E-N=-8.100461655252D+02  KE= 2.285954526781D+02
 Symmetry A    KE= 1.153806959865D+02
 Symmetry B    KE= 1.132147566916D+02
 Calling FoFJK, ICntrl=      2127 FMM=F ISym2X=1 I1Cent= 0 IOpClX= 0 NMat=1 NMatS=1 NMatT=0.
 ***** Axes restored to original set *****
 -------------------------------------------------------------------
 Center     Atomic                   Forces (Hartrees/Bohr)
 Number     Number              X              Y              Z
 -------------------------------------------------------------------
      1        6           0.072076616   -0.007480483   -0.012422448
      2        6          -0.072076617    0.007480483   -0.012422444
      3        1          -0.000553866    0.000024426    0.001276563
      4        1           0.000553866   -0.000024426    0.001276563
      5        8          -0.038529410    0.011165910   -0.001053379
      6        8           0.038529410   -0.011165910   -0.001053381
      7        1          -0.010241395    0.005902571   -0.013451525
      8        1           0.000850583   -0.001883656    0.025650788
      9        1           0.010241395   -0.005902570   -0.013451526
     10        1          -0.000850582    0.001883655    0.025650789
 -------------------------------------------------------------------
 Cartesian Forces:  Max     0.072076617 RMS     0.023094671

 GradGradGradGradGradGradGradGradGradGradGradGradGradGradGradGradGradGrad
 Berny optimization.
 Internal  Forces:  Max     0.036949070 RMS     0.012161091
 Search for a local minimum.
 Step number   1 out of a maximum of   48
 All quantities printed in internal units (Hartrees-Bohrs-Radians)
 Mixed Optimization -- RFO/linear search
 Second derivative matrix not updated -- first step.
     Eigenvalues ---    0.01705   0.01705   0.01844   0.04544   0.06144
     Eigenvalues ---    0.06590   0.11372   0.11383   0.13661   0.13991
     Eigenvalues ---    0.16000   0.16000   0.21989   0.21995   0.30279
     Eigenvalues ---    0.34911   0.34911   0.34923   0.34923   0.45783
     Eigenvalues ---    0.45783   0.58526   0.585261000.000001000.00000
     Eigenvalues --- 1000.000001000.000001000.000001000.000001000.00000
     Eigenvalues --- 1000.000001000.000001000.000001000.000001000.00000
     Eigenvalues --- 1000.000001000.000001000.00000
 RFO step:  Lambda=-2.63165754D-02 EMin= 1.70467875D-02
 Linear search not attempted -- first point.
 Maximum step size (   0.300) exceeded in Quadratic search.
    -- Step size scaled by   0.424
 Iteration  1 RMS(Cart)=  0.04167509 RMS(Int)=  0.00128275
 Iteration  2 RMS(Cart)=  0.00128712 RMS(Int)=  0.00033871
 Iteration  3 RMS(Cart)=  0.00000049 RMS(Int)=  0.00033871
 Iteration  1 RMS(Cart)=  0.00002024 RMS(Int)=  0.00002577
 Iteration  2 RMS(Cart)=  0.00001274 RMS(Int)=  0.00002861
 Iteration  3 RMS(Cart)=  0.00000802 RMS(Int)=  0.00003279
 Iteration  4 RMS(Cart)=  0.00000505 RMS(Int)=  0.00003604
 Iteration  5 RMS(Cart)=  0.00000318 RMS(Int)=  0.00003828
 Iteration  6 RMS(Cart)=  0.00000200 RMS(Int)=  0.00003974
 Iteration  7 RMS(Cart)=  0.00000126 RMS(Int)=  0.00004069
 Iteration  8 RMS(Cart)=  0.00000079 RMS(Int)=  0.00004129
 ClnCor:  largest displacement from symmetrization is 3.79D-11 for atom     9.
 Variable       Old X    -DE/DX   Delta X   Delta X   Delta X     New X
                                 (Linear)    (Quad)   (Total)
    R1        2.87411   0.01000   0.00000   0.01289   0.01289   2.88700
    R2        2.64377   0.00639   0.00000   0.00560   0.00560   2.64937
    R3        2.05819  -0.00276   0.00000  -0.00312  -0.00312   2.05507
    R4        2.05800   0.00411   0.00000   0.00465   0.00465   2.06265
    R5        2.64377   0.00639   0.00000   0.00560   0.00560   2.64937
    R6        2.05819  -0.00276   0.00000  -0.00312  -0.00312   2.05507
    R7        2.05800   0.00411   0.00000   0.00465   0.00465   2.06265
    R8        1.78826  -0.00013   0.00000  -0.00009  -0.00009   1.78817
    R9        1.78826  -0.00013   0.00000  -0.00009  -0.00009   1.78817
    A1        1.91215   0.01023   0.00000   0.01779   0.01735   1.92949
    A2        1.93086  -0.00006   0.00000  -0.00465  -0.00492   1.92594
    A3        1.85039  -0.00130   0.00000   0.00102   0.00030   1.85069
    A4        2.14421  -0.02369   0.00000  -0.04658  -0.04644   2.09778
    A5        1.70999   0.02209   0.00000   0.05468   0.05437   1.76436
    A6        1.88305  -0.00291   0.00000  -0.01119  -0.01080   1.87226
    A7        1.91215   0.01023   0.00000   0.01779   0.01735   1.92949
    A8        1.93086  -0.00006   0.00000  -0.00465  -0.00492   1.92594
    A9        1.85039  -0.00130   0.00000   0.00102   0.00030   1.85069
   A10        2.14421  -0.02369   0.00000  -0.04658  -0.04644   2.09778
   A11        1.70999   0.02209   0.00000   0.05468   0.05437   1.76436
   A12        1.88305  -0.00291   0.00000  -0.01119  -0.01080   1.87226
   A13        1.90444  -0.00209   0.00000  -0.00476  -0.00476   1.89968
   A14        1.90444  -0.00209   0.00000  -0.00476  -0.00476   1.89968
    D1        0.22061   0.03695   0.00000   0.00000   0.00000   0.22062
    D2        2.63784   0.01276   0.00000  -0.05418  -0.05422   2.58362
    D3       -1.60822   0.00855   0.00000  -0.06923  -0.06928  -1.67751
    D4        2.63784   0.01276   0.00000  -0.05418  -0.05422   2.58362
    D5       -1.22812  -0.01144   0.00000  -0.10836  -0.10844  -1.33656
    D6        0.80900  -0.01565   0.00000  -0.12342  -0.12351   0.68550
    D7       -1.60822   0.00855   0.00000  -0.06923  -0.06928  -1.67751
    D8        0.80900  -0.01565   0.00000  -0.12342  -0.12351   0.68550
    D9        2.84613  -0.01986   0.00000  -0.13847  -0.13857   2.70755
   D10       -2.97423  -0.00847   0.00000  -0.02598  -0.02621  -3.00043
   D11        0.99784   0.00473   0.00000   0.01003   0.00942   1.00726
   D12       -1.05067   0.00248   0.00000   0.00365   0.00449  -1.04617
   D13       -2.97423  -0.00847   0.00000  -0.02598  -0.02621  -3.00043
   D14        0.99784   0.00473   0.00000   0.01003   0.00942   1.00726
   D15       -1.05067   0.00248   0.00000   0.00365   0.00449  -1.04617
         Item               Value     Threshold  Converged?
 Maximum Force            0.018546     0.000450     NO 
 RMS     Force            0.007188     0.000300     NO 
 Maximum Displacement     0.107564     0.001800     NO 
 RMS     Displacement     0.041526     0.001200     NO 
 Predicted change in Energy=-9.969081D-03
 GradGradGradGradGradGradGradGradGradGradGradGradGradGradGradGradGradGrad

                          Input orientation:                          
 ---------------------------------------------------------------------
 Center     Atomic      Atomic             Coordinates (Angstroms)
 Number     Number       Type             X           Y           Z
 ---------------------------------------------------------------------
      1          6           0        0.082256    0.759425    0.613385
      2          6           0       -0.082256   -0.759425    0.613385
      3          1           0        0.219777    2.182561   -0.680336
      4          1           0       -0.219777   -2.182561   -0.680336
      5          8           0       -0.008421    1.264300   -0.691394
      6          8           0        0.008421   -1.264300   -0.691394
      7          1           0       -0.505151    1.203410    1.413680
      8          1           0        1.133194    0.948889    0.839262
      9          1           0        0.505151   -1.203410    1.413680
     10          1           0       -1.133194   -0.948889    0.839262
 ---------------------------------------------------------------------
                    Distance matrix (angstroms):
                    1          2          3          4          5
     1  C    0.000000
     2  C    1.527733   0.000000
     3  H    1.928196   3.228036   0.000000
     4  H    3.228036   1.928196   4.387197   0.000000
     5  O    1.401987   2.409016   0.946256   3.453352   0.000000
     6  O    2.409016   1.401987   3.453352   0.946256   2.528655
     7  H    1.087494   2.161488   2.422635   3.991383   2.163743
     8  H    1.091507   2.108714   2.159966   3.734393   1.935374
     9  H    2.161488   1.087494   3.991383   2.422635   3.284003
    10  H    2.108714   1.091507   3.734393   2.159966   2.916543
                    6          7          8          9         10
     6  O    0.000000
     7  H    3.284003   0.000000
     8  H    2.916543   1.754683   0.000000
     9  H    2.163743   2.610266   2.314473   0.000000
    10  H    1.935374   2.314473   2.956024   1.754683   0.000000
 Stoichiometry    C2H6O2
 Framework group  C2[X(C2H6O2)]
 Deg. of freedom    13
 Full point group                 C2      NOp   2
 Largest Abelian subgroup         C2      NOp   2
 Largest concise Abelian subgroup C2      NOp   2
                         Standard orientation:                         
 ---------------------------------------------------------------------
 Center     Atomic      Atomic             Coordinates (Angstroms)
 Number     Number       Type             X           Y           Z
 ---------------------------------------------------------------------
      1          6           0       -0.215207   -0.732924    0.629751
      2          6           0        0.215207    0.732924    0.629751
      3          1           0       -0.602135   -2.109338   -0.663969
      4          1           0        0.602135    2.109338   -0.663969
      5          8           0       -0.215207   -1.245877   -0.675027
      6          8           0        0.215207    1.245877   -0.675027
      7          1           0        0.284465   -1.273755    1.430047
      8          1           0       -1.283087   -0.733626    0.855629
      9          1           0       -0.284465    1.273755    1.430047
     10          1           0        1.283087    0.733626    0.855629
 ---------------------------------------------------------------------
 Rotational constants (GHZ):     15.0161309      6.1127646      4.6006399
 Standard basis: 6-31G(d) (6D, 7F)
 There are    36 symmetry adapted basis functions of A   symmetry.
 There are    36 symmetry adapted basis functions of B   symmetry.
 Integral buffers will be    131072 words long.
 Raffenetti 1 integral format.
 Two-electron integral symmetry is turned on.
    72 basis functions,   136 primitive gaussians,    72 cartesian basis functions
    17 alpha electrons       17 beta electrons
       nuclear repulsion energy       134.2594835017 Hartrees.
 NAtoms=   10 NActive=   10 NUniq=    5 SFac= 3.00D+00 NAtFMM=   80 NAOKFM=F Big=F
 One-electron integrals computed using PRISM.
 NBasis=    72 RedAO= T  NBF=    36    36
 NBsUse=    72 1.00D-06 NBFU=    36    36
 Initial guess read from the read-write file.
 B after Tr=     0.000000    0.000000    0.000000
         Rot=    1.000000    0.000000    0.000000    0.000000 Ang=   0.00 deg.
 Initial guess orbital symmetries:
       Occupied  (B) (A) (A) (B) (A) (B) (A) (B) (A) (B) (B) (A)
                 (A) (B) (A) (B) (A)
       Virtual   (A) (B) (A) (B) (B) (A) (A) (B) (B) (A) (A) (B)
                 (B) (A) (B) (A) (A) (B) (A) (B) (A) (B) (B) (A)
                 (B) (A) (A) (B) (B) (A) (B) (A) (B) (B) (A) (A)
                 (B) (A) (B) (A) (A) (B) (A) (B) (B) (A) (A) (B)
                 (B) (A) (B) (A) (B) (A) (B)
 Harris functional with IExCor=  205 diagonalized for initial guess.
 ExpMin= 1.61D-01 ExpMax= 5.48D+03 ExpMxC= 8.25D+02 IAcc=1 IRadAn=         1 AccDes= 0.00D+00
 HarFok:  IExCor=  205 AccDes= 0.00D+00 IRadAn=         1 IDoV= 1
 ScaDFX=  1.000000  1.000000  1.000000  1.000000
 FoFCou: FMM=F IPFlag=           0 FMFlag=      100000 FMFlg1=           0
         NFxFlg=           0 DoJE=T BraDBF=F KetDBF=T FulRan=T
         Omega=  0.000000  0.000000  1.000000  0.000000  0.000000 ICntrl=     500 IOpCl=  0
         NMat0=    1 NMatS0=    1 NMatT0=    0 NMatD0=    1 NMtDS0=    0 NMtDT0=    0
         I1Cent=           4 NGrid=           0.
 Petite list used in FoFCou.
 Requested convergence on RMS density matrix=1.00D-08 within 128 cycles.
 Requested convergence on MAX density matrix=1.00D-06.
 Requested convergence on             energy=1.00D-06.
 No special actions if energy rises.
 Keep R1 ints in memory in canonical form, NReq=4309302.
 SCF Done:  E(RHF) =  -228.893413094     A.U. after   13 cycles
             Convg  =    0.3514D-08             -V/T =  2.0015
 Calling FoFJK, ICntrl=      2127 FMM=F ISym2X=1 I1Cent= 0 IOpClX= 0 NMat=1 NMatS=1 NMatT=0.
 ***** Axes restored to original set *****
 -------------------------------------------------------------------
 Center     Atomic                   Forces (Hartrees/Bohr)
 Number     Number              X              Y              Z
 -------------------------------------------------------------------
      1        6           0.062570047   -0.006299876   -0.010836410
      2        6          -0.062570047    0.006299877   -0.010836406
      3        1          -0.000351586    0.000079006    0.000868622
      4        1           0.000351586   -0.000079006    0.000868622
      5        8          -0.029641285    0.005012626    0.003763810
      6        8           0.029641285   -0.005012626    0.003763808
      7        1          -0.008588262    0.004379823   -0.010778115
      8        1          -0.002132637   -0.000290233    0.016982092
      9        1           0.008588261   -0.004379823   -0.010778116
     10        1           0.002132638    0.000290232    0.016982092
 -------------------------------------------------------------------
 Cartesian Forces:  Max     0.062570047 RMS     0.019136427

 GradGradGradGradGradGradGradGradGradGradGradGradGradGradGradGradGradGrad
 Berny optimization.
 Using GEDIIS/GDIIS optimizer.
 Internal  Forces:  Max     0.028822644 RMS     0.008910649
 Search for a local minimum.
 Step number   2 out of a maximum of   48
 All quantities printed in internal units (Hartrees-Bohrs-Radians)
 Mixed Optimization -- RFO/linear search
 Update second derivatives using D2CorX and points    1    2
 DE= -9.48D-03 DEPred=-9.97D-03 R= 9.51D-01
 SS=  1.41D+00  RLast= 3.00D-01 DXNew= 5.0454D-01 8.9993D-01
 Trust test= 9.51D-01 RLast= 3.00D-01 DXMaxT set to 5.05D-01
 Use linear search instead of GDIIS.
 Linear search step of   0.592 exceeds DXMaxT=   0.505 but not scaled.
 Quartic linear search produced a step of  2.00000.
 Iteration  1 RMS(Cart)=  0.07304384 RMS(Int)=  0.01476363
 Iteration  2 RMS(Cart)=  0.01135329 RMS(Int)=  0.00201322
 Iteration  3 RMS(Cart)=  0.00015546 RMS(Int)=  0.00200793
 Iteration  4 RMS(Cart)=  0.00000019 RMS(Int)=  0.00200793
 Iteration  1 RMS(Cart)=  0.00008203 RMS(Int)=  0.00010757
 Iteration  2 RMS(Cart)=  0.00005133 RMS(Int)=  0.00011950
 Iteration  3 RMS(Cart)=  0.00003212 RMS(Int)=  0.00013687
 Iteration  4 RMS(Cart)=  0.00002010 RMS(Int)=  0.00015033
 Iteration  5 RMS(Cart)=  0.00001258 RMS(Int)=  0.00015950
 Iteration  6 RMS(Cart)=  0.00000787 RMS(Int)=  0.00016548
 Iteration  7 RMS(Cart)=  0.00000493 RMS(Int)=  0.00016931
 Iteration  8 RMS(Cart)=  0.00000308 RMS(Int)=  0.00017174
 Iteration  9 RMS(Cart)=  0.00000193 RMS(Int)=  0.00017326
 Iteration 10 RMS(Cart)=  0.00000121 RMS(Int)=  0.00017423
 Iteration 11 RMS(Cart)=  0.00000076 RMS(Int)=  0.00017483
 ClnCor:  largest displacement from symmetrization is 1.40D-10 for atom     9.
 Variable       Old X    -DE/DX   Delta X   Delta X   Delta X     New X
                                 (Linear)    (Quad)   (Total)
    R1        2.88700   0.00522   0.02578   0.00000   0.02578   2.91278
    R2        2.64937  -0.00054   0.01119   0.00000   0.01119   2.66056
    R3        2.05507  -0.00150  -0.00625   0.00000  -0.00625   2.04882
    R4        2.06265   0.00141   0.00930   0.00000   0.00930   2.07195
    R5        2.64937  -0.00054   0.01119   0.00000   0.01119   2.66056
    R6        2.05507  -0.00150  -0.00625   0.00000  -0.00625   2.04882
    R7        2.06265   0.00141   0.00930   0.00000   0.00930   2.07195
    R8        1.78817   0.00000  -0.00019   0.00000  -0.00019   1.78798
    R9        1.78817   0.00000  -0.00019   0.00000  -0.00019   1.78798
    A1        1.92949   0.00363   0.03469   0.00000   0.03185   1.96134
    A2        1.92594   0.00053  -0.00985   0.00000  -0.01129   1.91465
    A3        1.85069   0.00140   0.00060   0.00000  -0.00379   1.84690
    A4        2.09778  -0.01676  -0.09287   0.00000  -0.09189   2.00588
    A5        1.76436   0.01619   0.10874   0.00000   0.10697   1.87133
    A6        1.87226  -0.00189  -0.02159   0.00000  -0.01934   1.85291
    A7        1.92949   0.00363   0.03469   0.00000   0.03185   1.96134
    A8        1.92594   0.00053  -0.00985   0.00000  -0.01129   1.91465
    A9        1.85069   0.00140   0.00060   0.00000  -0.00379   1.84690
   A10        2.09778  -0.01676  -0.09287   0.00000  -0.09189   2.00588
   A11        1.76436   0.01619   0.10874   0.00000   0.10697   1.87133
   A12        1.87226  -0.00189  -0.02159   0.00000  -0.01934   1.85291
   A13        1.89968  -0.00143  -0.00952   0.00000  -0.00952   1.89016
   A14        1.89968  -0.00143  -0.00952   0.00000  -0.00952   1.89016
    D1        0.22062   0.02882   0.00001   0.00000   0.00000   0.22062
    D2        2.58362   0.00910  -0.10843   0.00000  -0.10863   2.47499
    D3       -1.67751   0.00792  -0.13857   0.00000  -0.13875  -1.81626
    D4        2.58362   0.00910  -0.10843   0.00000  -0.10863   2.47499
    D5       -1.33656  -0.01062  -0.21688   0.00000  -0.21726  -1.55382
    D6        0.68550  -0.01180  -0.24701   0.00000  -0.24738   0.43812
    D7       -1.67751   0.00792  -0.13857   0.00000  -0.13875  -1.81626
    D8        0.68550  -0.01180  -0.24701   0.00000  -0.24738   0.43812
    D9        2.70755  -0.01299  -0.27715   0.00000  -0.27750   2.43005
   D10       -3.00043  -0.00779  -0.05241   0.00000  -0.05400  -3.05443
   D11        1.00726   0.00402   0.01884   0.00000   0.01546   1.02271
   D12       -1.04617   0.00294   0.00899   0.00000   0.01395  -1.03222
   D13       -3.00043  -0.00779  -0.05241   0.00000  -0.05400  -3.05443
   D14        1.00726   0.00402   0.01884   0.00000   0.01546   1.02271
   D15       -1.04617   0.00294   0.00899   0.00000   0.01395  -1.03222
         Item               Value     Threshold  Converged?
 Maximum Force            0.011858     0.000450     NO 
 RMS     Force            0.004578     0.000300     NO 
 Maximum Displacement     0.215866     0.001800     NO 
 RMS     Displacement     0.082214     0.001200     NO 
 Predicted change in Energy=-9.201304D-03
 GradGradGradGradGradGradGradGradGradGradGradGradGradGradGradGradGradGrad

                          Input orientation:                          
 ---------------------------------------------------------------------
 Center     Atomic      Atomic             Coordinates (Angstroms)
 Number     Number       Type             X           Y           Z
 ---------------------------------------------------------------------
      1          6           0        0.098418    0.764379    0.586059
      2          6           0       -0.098418   -0.764379    0.586059
      3          1           0        0.229125    2.236326   -0.650947
      4          1           0       -0.229125   -2.236326   -0.650947
      5          8           0        0.024715    1.314271   -0.707926
      6          8           0       -0.024715   -1.314271   -0.707926
      7          1           0       -0.564656    1.218270    1.313918
      8          1           0        1.117331    0.934555    0.953493
      9          1           0        0.564656   -1.218270    1.313918
     10          1           0       -1.117331   -0.934555    0.953493
 ---------------------------------------------------------------------
                    Distance matrix (angstroms):
                    1          2          3          4          5
     1  C    0.000000
     2  C    1.541377   0.000000
     3  H    1.927147   3.262161   0.000000
     4  H    3.262161   1.927147   4.496065   0.000000
     5  O    1.407910   2.451600   0.946158   3.560115   0.000000
     6  O    2.451600   1.407910   3.560115   0.946158   2.629007
     7  H    1.084187   2.162880   2.351003   3.988421   2.108181
     8  H    1.096427   2.121185   2.248942   3.800218   2.024427
     9  H    2.162880   1.084187   3.988421   2.351003   3.285293
    10  H    2.121185   1.096427   3.800218   2.248942   3.020232
                    6          7          8          9         10
     6  O    0.000000
     7  H    3.285293   0.000000
     8  H    3.020232   1.743410   0.000000
     9  H    2.108181   2.685530   2.251669   0.000000
    10  H    2.024427   2.251669   2.913294   1.743410   0.000000
 Stoichiometry    C2H6O2
 Framework group  C2[X(C2H6O2)]
 Deg. of freedom    13
 Full point group                 C2      NOp   2
 Largest Abelian subgroup         C2      NOp   2
 Largest concise Abelian subgroup C2      NOp   2
                         Standard orientation:                         
 ---------------------------------------------------------------------
 Center     Atomic      Atomic             Coordinates (Angstroms)
 Number     Number       Type             X           Y           Z
 ---------------------------------------------------------------------
      1          6           0       -0.199087   -0.744530    0.617270
      2          6           0        0.199087    0.744530    0.617270
      3          1           0       -0.524173   -2.186068   -0.619736
      4          1           0        0.524173    2.186068   -0.619736
      5          8           0       -0.199087   -1.299340   -0.676715
      6          8           0        0.199087    1.299340   -0.676715
      7          1           0        0.397813   -1.282483    1.345129
      8          1           0       -1.231576   -0.777843    0.984704
      9          1           0       -0.397813    1.282483    1.345129
     10          1           0        1.231576    0.777843    0.984704
 ---------------------------------------------------------------------
 Rotational constants (GHZ):     15.2036963      5.7672967      4.4192873
 Standard basis: 6-31G(d) (6D, 7F)
 There are    36 symmetry adapted basis functions of A   symmetry.
 There are    36 symmetry adapted basis functions of B   symmetry.
 Integral buffers will be    131072 words long.
 Raffenetti 1 integral format.
 Two-electron integral symmetry is turned on.
    72 basis functions,   136 primitive gaussians,    72 cartesian basis functions
    17 alpha electrons       17 beta electrons
       nuclear repulsion energy       132.8097522669 Hartrees.
 NAtoms=   10 NActive=   10 NUniq=    5 SFac= 3.00D+00 NAtFMM=   80 NAOKFM=F Big=F
 One-electron integrals computed using PRISM.
 NBasis=    72 RedAO= T  NBF=    36    36
 NBsUse=    72 1.00D-06 NBFU=    36    36
 Initial guess read from the read-write file.
 B after Tr=     0.000000    0.000000    0.000000
         Rot=    1.000000    0.000000    0.000000    0.000000 Ang=   0.00 deg.
 Initial guess orbital symmetries:
       Occupied  (B) (A) (A) (B) (A) (B) (A) (B) (A) (B) (B) (A)
                 (A) (B) (A) (B) (A)
       Virtual   (A) (B) (A) (B) (B) (A) (A) (B) (B) (A) (B) (A)
                 (B) (A) (B) (A) (A) (B) (A) (B) (A) (B) (B) (A)
                 (B) (A) (A) (B) (B) (A) (B) (A) (B) (A) (B) (A)
                 (B) (A) (B) (A) (A) (B) (A) (B) (B) (A) (A) (B)
                 (B) (A) (B) (A) (B) (A) (B)
 Harris functional with IExCor=  205 diagonalized for initial guess.
 ExpMin= 1.61D-01 ExpMax= 5.48D+03 ExpMxC= 8.25D+02 IAcc=1 IRadAn=         1 AccDes= 0.00D+00
 HarFok:  IExCor=  205 AccDes= 0.00D+00 IRadAn=         1 IDoV= 1
 ScaDFX=  1.000000  1.000000  1.000000  1.000000
 FoFCou: FMM=F IPFlag=           0 FMFlag=      100000 FMFlg1=           0
         NFxFlg=           0 DoJE=T BraDBF=F KetDBF=T FulRan=T
         Omega=  0.000000  0.000000  1.000000  0.000000  0.000000 ICntrl=     500 IOpCl=  0
         NMat0=    1 NMatS0=    1 NMatT0=    0 NMatD0=    1 NMtDS0=    0 NMtDT0=    0
         I1Cent=           4 NGrid=           0.
 Petite list used in FoFCou.
 Requested convergence on RMS density matrix=1.00D-08 within 128 cycles.
 Requested convergence on MAX density matrix=1.00D-06.
 Requested convergence on             energy=1.00D-06.
 No special actions if energy rises.
 Keep R1 ints in memory in canonical form, NReq=4309302.
 SCF Done:  E(RHF) =  -228.903152001     A.U. after   11 cycles
             Convg  =    0.3552D-08             -V/T =  2.0019
 Calling FoFJK, ICntrl=      2127 FMM=F ISym2X=1 I1Cent= 0 IOpClX= 0 NMat=1 NMatS=1 NMatT=0.
 ***** Axes restored to original set *****
 -------------------------------------------------------------------
 Center     Atomic                   Forces (Hartrees/Bohr)
 Number     Number              X              Y              Z
 -------------------------------------------------------------------
      1        6           0.041309468   -0.004579303   -0.006891907
      2        6          -0.041309468    0.004579304   -0.006891905
      3        1          -0.000054313    0.000354866    0.000093410
      4        1           0.000054313   -0.000354866    0.000093410
      5        8          -0.013105492   -0.005079750    0.010512944
      6        8           0.013105492    0.005079750    0.010512944
      7        1          -0.006175131    0.001650663   -0.004894997
      8        1          -0.004895857    0.003185261    0.001180550
      9        1           0.006175130   -0.001650663   -0.004894998
     10        1           0.004895857   -0.003185261    0.001180549
 -------------------------------------------------------------------
 Cartesian Forces:  Max     0.041309468 RMS     0.012065059

 GradGradGradGradGradGradGradGradGradGradGradGradGradGradGradGradGradGrad
 Berny optimization.
 Using GEDIIS/GDIIS optimizer.
 Internal  Forces:  Max     0.013513046 RMS     0.005269174
 Search for a local minimum.
 Step number   3 out of a maximum of   48
 All quantities printed in internal units (Hartrees-Bohrs-Radians)
 Mixed Optimization -- RFO/linear search
 Update second derivatives using D2CorX and points    2    3
 Use linear search instead of GDIIS.
     Eigenvalues ---    0.01705   0.01705   0.02019   0.04795   0.06299
     Eigenvalues ---    0.06654   0.11534   0.11566   0.13740   0.14036
     Eigenvalues ---    0.15983   0.16000   0.22022   0.22918   0.30095
     Eigenvalues ---    0.34905   0.34911   0.34923   0.35160   0.45783
     Eigenvalues ---    0.47211   0.58526   0.585291000.000001000.00000
     Eigenvalues --- 1000.000001000.000001000.000001000.000001000.00000
     Eigenvalues --- 1000.000001000.000001000.000001000.000001000.00000
     Eigenvalues --- 1000.000001000.000001000.00000
 RFO step:  Lambda=-6.11637957D-03 EMin= 1.70467875D-02
 Quartic linear search produced a step of  0.39782.
 Iteration  1 RMS(Cart)=  0.06435798 RMS(Int)=  0.00876093
 Iteration  2 RMS(Cart)=  0.00798747 RMS(Int)=  0.00168323
 Iteration  3 RMS(Cart)=  0.00006883 RMS(Int)=  0.00168178
 Iteration  4 RMS(Cart)=  0.00000010 RMS(Int)=  0.00168178
 Iteration  1 RMS(Cart)=  0.00011107 RMS(Int)=  0.00013955
 Iteration  2 RMS(Cart)=  0.00006967 RMS(Int)=  0.00015501
 Iteration  3 RMS(Cart)=  0.00004370 RMS(Int)=  0.00017757
 Iteration  4 RMS(Cart)=  0.00002741 RMS(Int)=  0.00019510
 Iteration  5 RMS(Cart)=  0.00001719 RMS(Int)=  0.00020708
 Iteration  6 RMS(Cart)=  0.00001078 RMS(Int)=  0.00021491
 Iteration  7 RMS(Cart)=  0.00000676 RMS(Int)=  0.00021993
 Iteration  8 RMS(Cart)=  0.00000424 RMS(Int)=  0.00022312
 Iteration  9 RMS(Cart)=  0.00000266 RMS(Int)=  0.00022514
 Iteration 10 RMS(Cart)=  0.00000167 RMS(Int)=  0.00022641
 Iteration 11 RMS(Cart)=  0.00000105 RMS(Int)=  0.00022721
 Iteration 12 RMS(Cart)=  0.00000066 RMS(Int)=  0.00022771
 ClnCor:  largest displacement from symmetrization is 1.19D-10 for atom    10.
 Variable       Old X    -DE/DX   Delta X   Delta X   Delta X     New X
                                 (Linear)    (Quad)   (Total)
    R1        2.91278  -0.00225   0.01026  -0.01510  -0.00484   2.90794
    R2        2.66056  -0.01090   0.00445  -0.03083  -0.02637   2.63419
    R3        2.04882   0.00118  -0.00249   0.00578   0.00330   2.05211
    R4        2.07195  -0.00366   0.00370  -0.01495  -0.01125   2.06069
    R5        2.66056  -0.01090   0.00445  -0.03083  -0.02637   2.63419
    R6        2.04882   0.00118  -0.00249   0.00578   0.00330   2.05211
    R7        2.07195  -0.00366   0.00370  -0.01495  -0.01125   2.06069
    R8        1.78798   0.00034  -0.00007   0.00076   0.00069   1.78867
    R9        1.78798   0.00034  -0.00007   0.00076   0.00069   1.78867
    A1        1.96134  -0.00643   0.01267  -0.05049  -0.04083   1.92051
    A2        1.91465   0.00052  -0.00449  -0.01022  -0.01886   1.89580
    A3        1.84690   0.00748  -0.00151   0.07795   0.07523   1.92214
    A4        2.00588  -0.00462  -0.03656  -0.03004  -0.06977   1.93612
    A5        1.87133   0.00516   0.04255  -0.00041   0.04269   1.91402
    A6        1.85291  -0.00049  -0.00769   0.02865   0.02182   1.87473
    A7        1.96134  -0.00643   0.01267  -0.05049  -0.04083   1.92051
    A8        1.91465   0.00052  -0.00449  -0.01022  -0.01886   1.89580
    A9        1.84690   0.00748  -0.00151   0.07795   0.07523   1.92214
   A10        2.00588  -0.00462  -0.03656  -0.03004  -0.06977   1.93612
   A11        1.87133   0.00516   0.04255  -0.00041   0.04269   1.91402
   A12        1.85291  -0.00049  -0.00769   0.02865   0.02182   1.87473
   A13        1.89016  -0.00010  -0.00379   0.00198  -0.00181   1.88835
   A14        1.89016  -0.00010  -0.00379   0.00198  -0.00181   1.88835
    D1        0.22062   0.01351   0.00000   0.00000  -0.00001   0.22061
    D2        2.47499   0.00260  -0.04321  -0.08902  -0.13186   2.34313
    D3       -1.81626   0.00617  -0.05520  -0.02007  -0.07516  -1.89142
    D4        2.47499   0.00260  -0.04321  -0.08902  -0.13186   2.34313
    D5       -1.55382  -0.00830  -0.08643  -0.17804  -0.26371  -1.81753
    D6        0.43812  -0.00474  -0.09841  -0.10909  -0.20701   0.23110
    D7       -1.81626   0.00617  -0.05520  -0.02007  -0.07516  -1.89142
    D8        0.43812  -0.00474  -0.09841  -0.10909  -0.20701   0.23110
    D9        2.43005  -0.00118  -0.11039  -0.04013  -0.15031   2.27974
   D10       -3.05443  -0.00594  -0.02148  -0.05138  -0.07177  -3.12620
   D11        1.02271   0.00295   0.00615   0.03301   0.03596   1.05868
   D12       -1.03222   0.00276   0.00555   0.01526   0.02291  -1.00931
   D13       -3.05443  -0.00594  -0.02148  -0.05138  -0.07177  -3.12620
   D14        1.02271   0.00295   0.00615   0.03301   0.03596   1.05868
   D15       -1.03222   0.00276   0.00555   0.01526   0.02291  -1.00931
         Item               Value     Threshold  Converged?
 Maximum Force            0.010905     0.000450     NO 
 RMS     Force            0.003915     0.000300     NO 
 Maximum Displacement     0.150317     0.001800     NO 
 RMS     Displacement     0.070432     0.001200     NO 
 Predicted change in Energy=-3.841343D-03
 GradGradGradGradGradGradGradGradGradGradGradGradGradGradGradGradGradGrad

                          Input orientation:                          
 ---------------------------------------------------------------------
 Center     Atomic      Atomic             Coordinates (Angstroms)
 Number     Number       Type             X           Y           Z
 ---------------------------------------------------------------------
      1          6           0        0.127332    0.758797    0.601777
      2          6           0       -0.127332   -0.758797    0.601777
      3          1           0        0.237613    2.183731   -0.671162
      4          1           0       -0.237613   -2.183731   -0.671162
      5          8           0        0.064199    1.253673   -0.699845
      6          8           0       -0.064199   -1.253673   -0.699845
      7          1           0       -0.615778    1.235092    1.234373
      8          1           0        1.106869    0.974964    1.029454
      9          1           0        0.615778   -1.235092    1.234373
     10          1           0       -1.106869   -0.974964    1.029454
 ---------------------------------------------------------------------
                    Distance matrix (angstroms):
                    1          2          3          4          5
     1  C    0.000000
     2  C    1.538814   0.000000
     3  H    1.913889   3.226768   0.000000
     4  H    3.226768   1.913889   4.393242   0.000000
     5  O    1.393954   2.404359   0.946522   3.450749   0.000000
     6  O    2.404359   1.393954   3.450749   0.946522   2.510632
     7  H    1.085931   2.148105   2.293307   3.932229   2.050345
     8  H    1.090472   2.170735   2.260270   3.831068   2.038459
     9  H    2.148105   1.085931   3.932229   2.293307   3.199905
    10  H    2.170735   1.090472   3.831068   2.260270   3.054292
                    6          7          8          9         10
     6  O    0.000000
     7  H    3.199905   0.000000
     8  H    3.054292   1.754187   0.000000
     9  H    2.050345   2.760170   2.273216   0.000000
    10  H    2.038459   2.273216   2.950061   1.754187   0.000000
 Stoichiometry    C2H6O2
 Framework group  C2[X(C2H6O2)]
 Deg. of freedom    13
 Full point group                 C2      NOp   2
 Largest Abelian subgroup         C2      NOp   2
 Largest concise Abelian subgroup C2      NOp   2
                         Standard orientation:                         
 ---------------------------------------------------------------------
 Center     Atomic      Atomic             Coordinates (Angstroms)
 Number     Number       Type             X           Y           Z
 ---------------------------------------------------------------------
      1          6           0        0.054868    0.767448    0.625038
      2          6           0       -0.054868   -0.767448    0.625038
      3          1           0        0.029649    2.196421   -0.647901
      4          1           0       -0.029649   -2.196421   -0.647901
      5          8           0       -0.054868    1.254116   -0.676584
      6          8           0        0.054868   -1.254116   -0.676584
      7          1           0       -0.730025    1.171195    1.257634
      8          1           0        1.009518    1.075448    1.052715
      9          1           0        0.730025   -1.171195    1.257634
     10          1           0       -1.009518   -1.075448    1.052715
 ---------------------------------------------------------------------
 Rotational constants (GHZ):     15.1277904      6.1207455      4.6200864
 Standard basis: 6-31G(d) (6D, 7F)
 There are    36 symmetry adapted basis functions of A   symmetry.
 There are    36 symmetry adapted basis functions of B   symmetry.
 Integral buffers will be    131072 words long.
 Raffenetti 1 integral format.
 Two-electron integral symmetry is turned on.
    72 basis functions,   136 primitive gaussians,    72 cartesian basis functions
    17 alpha electrons       17 beta electrons
       nuclear repulsion energy       134.4158078705 Hartrees.
 NAtoms=   10 NActive=   10 NUniq=    5 SFac= 3.00D+00 NAtFMM=   80 NAOKFM=F Big=F
 One-electron integrals computed using PRISM.
 NBasis=    72 RedAO= T  NBF=    36    36
 NBsUse=    72 1.00D-06 NBFU=    36    36
 Initial guess read from the read-write file.
 B after Tr=     0.000000    0.000000    0.000000
         Rot=    1.000000    0.000000    0.000000    0.000000 Ang=   0.00 deg.
 Initial guess orbital symmetries:
       Occupied  (B) (A) (A) (B) (A) (B) (A) (B) (A) (B) (B) (A)
                 (A) (B) (A) (B) (A)
       Virtual   (A) (B) (A) (B) (B) (A) (A) (B) (B) (A) (B) (A)
                 (B) (B) (A) (A) (A) (B) (B) (A) (A) (B) (B) (A)
                 (B) (A) (A) (B) (B) (B) (A) (A) (B) (A) (B) (B)
                 (A) (A) (A) (B) (B) (A) (A) (B) (B) (A) (A) (B)
                 (B) (A) (B) (A) (B) (A) (B)
 Harris functional with IExCor=  205 diagonalized for initial guess.
 ExpMin= 1.61D-01 ExpMax= 5.48D+03 ExpMxC= 8.25D+02 IAcc=1 IRadAn=         1 AccDes= 0.00D+00
 HarFok:  IExCor=  205 AccDes= 0.00D+00 IRadAn=         1 IDoV= 1
 ScaDFX=  1.000000  1.000000  1.000000  1.000000
 FoFCou: FMM=F IPFlag=           0 FMFlag=      100000 FMFlg1=           0
         NFxFlg=           0 DoJE=T BraDBF=F KetDBF=T FulRan=T
         Omega=  0.000000  0.000000  1.000000  0.000000  0.000000 ICntrl=     500 IOpCl=  0
         NMat0=    1 NMatS0=    1 NMatT0=    0 NMatD0=    1 NMtDS0=    0 NMtDT0=    0
         I1Cent=           4 NGrid=           0.
 Petite list used in FoFCou.
 Requested convergence on RMS density matrix=1.00D-08 within 128 cycles.
 Requested convergence on MAX density matrix=1.00D-06.
 Requested convergence on             energy=1.00D-06.
 No special actions if energy rises.
 Keep R1 ints in memory in canonical form, NReq=4309302.
 SCF Done:  E(RHF) =  -228.906124304     A.U. after   13 cycles
             Convg  =    0.3120D-08             -V/T =  2.0014
 Calling FoFJK, ICntrl=      2127 FMM=F ISym2X=1 I1Cent= 0 IOpClX= 0 NMat=1 NMatS=1 NMatT=0.
 ***** Axes restored to original set *****
 -------------------------------------------------------------------
 Center     Atomic                   Forces (Hartrees/Bohr)
 Number     Number              X              Y              Z
 -------------------------------------------------------------------
      1        6           0.004375473   -0.000653864   -0.000153696
      2        6          -0.004375473    0.000653864   -0.000153696
      3        1          -0.000282219    0.000180228   -0.001043503
      4        1           0.000282219   -0.000180228   -0.001043503
      5        8          -0.003140383    0.004005212   -0.000772222
      6        8           0.003140383   -0.004005212   -0.000772222
      7        1          -0.000066494    0.001342818    0.001763698
      8        1          -0.001542053   -0.001995355    0.000205723
      9        1           0.000066494   -0.001342818    0.001763698
     10        1           0.001542053    0.001995355    0.000205723
 -------------------------------------------------------------------
 Cartesian Forces:  Max     0.004375473 RMS     0.001976814

 GradGradGradGradGradGradGradGradGradGradGradGradGradGradGradGradGradGrad
 Berny optimization.
 Using GEDIIS/GDIIS optimizer.
 Internal  Forces:  Max     0.004016911 RMS     0.001951408
 Search for a local minimum.
 Step number   4 out of a maximum of   48
 All quantities printed in internal units (Hartrees-Bohrs-Radians)
 Mixed Optimization -- RFO/linear search
 Update second derivatives using D2CorX and points    3    4
 DE= -2.97D-03 DEPred=-3.84D-03 R= 7.74D-01
 SS=  1.41D+00  RLast= 5.19D-01 DXNew= 8.4853D-01 1.5567D+00
 Trust test= 7.74D-01 RLast= 5.19D-01 DXMaxT set to 8.49D-01
 Use linear search instead of GDIIS.
     Eigenvalues ---    0.01703   0.01705   0.02255   0.05197   0.06030
     Eigenvalues ---    0.06679   0.11396   0.11440   0.13829   0.14036
     Eigenvalues ---    0.16000   0.16076   0.22003   0.24659   0.30372
     Eigenvalues ---    0.34830   0.34911   0.34923   0.34947   0.45783
     Eigenvalues ---    0.48906   0.58526   0.585261000.000001000.00000
     Eigenvalues --- 1000.000001000.000001000.000001000.000001000.00000
     Eigenvalues --- 1000.000001000.000001000.000001000.000001000.00000
     Eigenvalues --- 1000.000001000.000001000.00000
 RFO step:  Lambda=-2.23889457D-04 EMin= 1.70328766D-02
 Quartic linear search produced a step of -0.16631.
 Iteration  1 RMS(Cart)=  0.01587982 RMS(Int)=  0.00022629
 Iteration  2 RMS(Cart)=  0.00010987 RMS(Int)=  0.00020514
 Iteration  3 RMS(Cart)=  0.00000000 RMS(Int)=  0.00020514
 Iteration  1 RMS(Cart)=  0.00000912 RMS(Int)=  0.00001160
 Iteration  2 RMS(Cart)=  0.00000571 RMS(Int)=  0.00001289
 Iteration  3 RMS(Cart)=  0.00000358 RMS(Int)=  0.00001477
 Iteration  4 RMS(Cart)=  0.00000224 RMS(Int)=  0.00001622
 Iteration  5 RMS(Cart)=  0.00000140 RMS(Int)=  0.00001721
 Iteration  6 RMS(Cart)=  0.00000088 RMS(Int)=  0.00001786
 ClnCor:  largest displacement from symmetrization is 1.80D-11 for atom    10.
 Variable       Old X    -DE/DX   Delta X   Delta X   Delta X     New X
                                 (Linear)    (Quad)   (Total)
    R1        2.90794   0.00273   0.00081   0.00612   0.00693   2.91487
    R2        2.63419   0.00334   0.00439   0.00034   0.00472   2.63891
    R3        2.05211   0.00166  -0.00055   0.00478   0.00423   2.05634
    R4        2.06069  -0.00170   0.00187  -0.00661  -0.00474   2.05596
    R5        2.63419   0.00334   0.00439   0.00034   0.00472   2.63891
    R6        2.05211   0.00166  -0.00055   0.00478   0.00423   2.05634
    R7        2.06069  -0.00170   0.00187  -0.00661  -0.00474   2.05596
    R8        1.78867   0.00009  -0.00011   0.00028   0.00017   1.78884
    R9        1.78867   0.00009  -0.00011   0.00028   0.00017   1.78884
    A1        1.92051   0.00402   0.00679   0.00819   0.01533   1.93584
    A2        1.89580  -0.00012   0.00314   0.00190   0.00555   1.90135
    A3        1.92214  -0.00289  -0.01251  -0.00461  -0.01709   1.90504
    A4        1.93612  -0.00260   0.01160  -0.01103   0.00098   1.93710
    A5        1.91402   0.00130  -0.00710   0.00785   0.00072   1.91473
    A6        1.87473   0.00013  -0.00363  -0.00273  -0.00644   1.86829
    A7        1.92051   0.00402   0.00679   0.00819   0.01533   1.93584
    A8        1.89580  -0.00012   0.00314   0.00190   0.00555   1.90135
    A9        1.92214  -0.00289  -0.01251  -0.00461  -0.01709   1.90504
   A10        1.93612  -0.00260   0.01160  -0.01103   0.00098   1.93710
   A11        1.91402   0.00130  -0.00710   0.00785   0.00072   1.91473
   A12        1.87473   0.00013  -0.00363  -0.00273  -0.00644   1.86829
   A13        1.88835   0.00192   0.00030   0.00980   0.01010   1.89846
   A14        1.88835   0.00192   0.00030   0.00980   0.01010   1.89846
    D1        0.22061   0.00327   0.00000   0.00000   0.00001   0.22062
    D2        2.34313   0.00247   0.02193  -0.00729   0.01459   2.35772
    D3       -1.89142   0.00092   0.01250  -0.01210   0.00041  -1.89101
    D4        2.34313   0.00247   0.02193  -0.00729   0.01459   2.35772
    D5       -1.81753   0.00168   0.04386  -0.01459   0.02917  -1.78837
    D6        0.23110   0.00013   0.03443  -0.01940   0.01499   0.24609
    D7       -1.89142   0.00092   0.01250  -0.01210   0.00041  -1.89101
    D8        0.23110   0.00013   0.03443  -0.01940   0.01499   0.24609
    D9        2.27974  -0.00142   0.02500  -0.02421   0.00081   2.28055
   D10       -3.12620   0.00023   0.01194  -0.00709   0.00457  -3.12163
   D11        1.05868  -0.00058  -0.00598  -0.00771  -0.01332   1.04536
   D12       -1.00931   0.00004  -0.00381  -0.00251  -0.00642  -1.01573
   D13       -3.12620   0.00023   0.01194  -0.00709   0.00457  -3.12163
   D14        1.05868  -0.00058  -0.00598  -0.00771  -0.01332   1.04536
   D15       -1.00931   0.00004  -0.00381  -0.00251  -0.00642  -1.01573
         Item               Value     Threshold  Converged?
 Maximum Force            0.003999     0.000450     NO 
 RMS     Force            0.001771     0.000300     NO 
 Maximum Displacement     0.042820     0.001800     NO 
 RMS     Displacement     0.015840     0.001200     NO 
 Predicted change in Energy=-2.423875D-04
 GradGradGradGradGradGradGradGradGradGradGradGradGradGradGradGradGradGrad

                          Input orientation:                          
 ---------------------------------------------------------------------
 Center     Atomic      Atomic             Coordinates (Angstroms)
 Number     Number       Type             X           Y           Z
 ---------------------------------------------------------------------
      1          6           0        0.123900    0.761223    0.596218
      2          6           0       -0.123900   -0.761223    0.596218
      3          1           0        0.235576    2.206351   -0.667166
      4          1           0       -0.235576   -2.206351   -0.667166
      5          8           0        0.062251    1.276333   -0.700294
      6          8           0       -0.062251   -1.276333   -0.700294
      7          1           0       -0.611447    1.238743    1.240693
      8          1           0        1.103077    0.963461    1.025146
      9          1           0        0.611448   -1.238743    1.240693
     10          1           0       -1.103077   -0.963461    1.025146
 ---------------------------------------------------------------------
                    Distance matrix (angstroms):
                    1          2          3          4          5
     1  C    0.000000
     2  C    1.542481   0.000000
     3  H    1.922760   3.245282   0.000000
     4  H    3.245282   1.922760   4.437783   0.000000
     5  O    1.396453   2.422236   0.946611   3.495552   0.000000
     6  O    2.422236   1.396453   3.495552   0.946611   2.555700
     7  H    1.088168   2.157062   2.300792   3.955993   2.054924
     8  H    1.087965   2.159627   2.271839   3.834530   2.039203
     9  H    2.157062   1.088168   3.955993   2.300792   3.224074
    10  H    2.159627   1.087965   3.834530   2.271839   3.058072
                    6          7          8          9         10
     6  O    0.000000
     7  H    3.224074   0.000000
     8  H    3.058072   1.749810   0.000000
     9  H    2.054924   2.762862   2.266685   0.000000
    10  H    2.039203   2.266685   2.929189   1.749810   0.000000
 Stoichiometry    C2H6O2
 Framework group  C2[X(C2H6O2)]
 Deg. of freedom    13
 Full point group                 C2      NOp   2
 Largest Abelian subgroup         C2      NOp   2
 Largest concise Abelian subgroup C2      NOp   2
                         Standard orientation:                         
 ---------------------------------------------------------------------
 Center     Atomic      Atomic             Coordinates (Angstroms)
 Number     Number       Type             X           Y           Z
 ---------------------------------------------------------------------
      1          6           0        0.054129    0.769338    0.621298
      2          6           0       -0.054129   -0.769338    0.621298
      3          1           0        0.033864    2.218633   -0.642086
      4          1           0       -0.033864   -2.218633   -0.642086
      5          8           0       -0.054129    1.276703   -0.675213
      6          8           0        0.054129   -1.276703   -0.675213
      7          1           0       -0.721613    1.177976    1.265774
      8          1           0        1.010846    1.059824    1.050226
      9          1           0        0.721613   -1.177976    1.265774
     10          1           0       -1.010846   -1.059824    1.050226
 ---------------------------------------------------------------------
 Rotational constants (GHZ):     15.2102893      5.9733302      4.5410778
 Standard basis: 6-31G(d) (6D, 7F)
 There are    36 symmetry adapted basis functions of A   symmetry.
 There are    36 symmetry adapted basis functions of B   symmetry.
 Integral buffers will be    131072 words long.
 Raffenetti 1 integral format.
 Two-electron integral symmetry is turned on.
    72 basis functions,   136 primitive gaussians,    72 cartesian basis functions
    17 alpha electrons       17 beta electrons
       nuclear repulsion energy       133.8357029948 Hartrees.
 NAtoms=   10 NActive=   10 NUniq=    5 SFac= 3.00D+00 NAtFMM=   80 NAOKFM=F Big=F
 One-electron integrals computed using PRISM.
 NBasis=    72 RedAO= T  NBF=    36    36
 NBsUse=    72 1.00D-06 NBFU=    36    36
 Initial guess read from the read-write file.
 B after Tr=     0.000000    0.000000    0.000000
         Rot=    1.000000    0.000000    0.000000    0.000000 Ang=   0.00 deg.
 Initial guess orbital symmetries:
       Occupied  (B) (A) (A) (B) (A) (B) (A) (B) (A) (B) (B) (A)
                 (A) (B) (A) (B) (A)
       Virtual   (A) (B) (A) (B) (B) (A) (A) (B) (B) (A) (B) (A)
                 (B) (B) (A) (A) (A) (B) (B) (A) (A) (B) (B) (A)
                 (B) (A) (A) (B) (B) (A) (A) (B) (B) (A) (B) (B)
                 (A) (A) (A) (B) (B) (A) (B) (A) (B) (A) (A) (B)
                 (B) (A) (B) (A) (B) (A) (B)
 Harris functional with IExCor=  205 diagonalized for initial guess.
 ExpMin= 1.61D-01 ExpMax= 5.48D+03 ExpMxC= 8.25D+02 IAcc=1 IRadAn=         1 AccDes= 0.00D+00
 HarFok:  IExCor=  205 AccDes= 0.00D+00 IRadAn=         1 IDoV= 1
 ScaDFX=  1.000000  1.000000  1.000000  1.000000
 FoFCou: FMM=F IPFlag=           0 FMFlag=      100000 FMFlg1=           0
         NFxFlg=           0 DoJE=T BraDBF=F KetDBF=T FulRan=T
         Omega=  0.000000  0.000000  1.000000  0.000000  0.000000 ICntrl=     500 IOpCl=  0
         NMat0=    1 NMatS0=    1 NMatT0=    0 NMatD0=    1 NMtDS0=    0 NMtDT0=    0
         I1Cent=           4 NGrid=           0.
 Petite list used in FoFCou.
 Requested convergence on RMS density matrix=1.00D-08 within 128 cycles.
 Requested convergence on MAX density matrix=1.00D-06.
 Requested convergence on             energy=1.00D-06.
 No special actions if energy rises.
 Keep R1 ints in memory in canonical form, NReq=4309302.
 SCF Done:  E(RHF) =  -228.906333879     A.U. after   10 cycles
             Convg  =    0.4653D-08             -V/T =  2.0016
 Calling FoFJK, ICntrl=      2127 FMM=F ISym2X=1 I1Cent= 0 IOpClX= 0 NMat=1 NMatS=1 NMatT=0.
 ***** Axes restored to original set *****
 -------------------------------------------------------------------
 Center     Atomic                   Forces (Hartrees/Bohr)
 Number     Number              X              Y              Z
 -------------------------------------------------------------------
      1        6           0.006482730   -0.000448171   -0.000624229
      2        6          -0.006482730    0.000448171   -0.000624228
      3        1          -0.000132718   -0.000274070    0.000280895
      4        1           0.000132718    0.000274070    0.000280895
      5        8          -0.003939971    0.000065909   -0.000113516
      6        8           0.003939971   -0.000065909   -0.000113516
      7        1           0.000061085   -0.000497333    0.000242421
      8        1           0.000205559   -0.000272978    0.000214428
      9        1          -0.000061085    0.000497333    0.000242421
     10        1          -0.000205559    0.000272978    0.000214428
 -------------------------------------------------------------------
 Cartesian Forces:  Max     0.006482730 RMS     0.001979918

 GradGradGradGradGradGradGradGradGradGradGradGradGradGradGradGradGradGrad
 Berny optimization.
 Using GEDIIS/GDIIS optimizer.
 Internal  Forces:  Max     0.003704871 RMS     0.001061081
 Search for a local minimum.
 Step number   5 out of a maximum of   48
 All quantities printed in internal units (Hartrees-Bohrs-Radians)
 Mixed Optimization -- En-DIIS/RFO-DIIS
 Update second derivatives using D2CorX and points    3    4    5
 DE= -2.10D-04 DEPred=-2.42D-04 R= 8.65D-01
 SS=  1.41D+00  RLast= 6.15D-02 DXNew= 1.4270D+00 1.8457D-01
 Trust test= 8.65D-01 RLast= 6.15D-02 DXMaxT set to 8.49D-01
 Use linear search instead of GDIIS.
     Eigenvalues ---    0.01684   0.01705   0.02275   0.05100   0.06059
     Eigenvalues ---    0.06539   0.11466   0.11491   0.13755   0.13894
     Eigenvalues ---    0.16000   0.16499   0.22010   0.26796   0.32348
     Eigenvalues ---    0.34911   0.34923   0.34946   0.35691   0.45783
     Eigenvalues ---    0.49178   0.58526   0.586381000.000001000.00000
     Eigenvalues --- 1000.000001000.000001000.000001000.000001000.00000
     Eigenvalues --- 1000.000001000.000001000.000001000.000001000.00000
     Eigenvalues --- 1000.000001000.000001000.00000
 RFO step:  Lambda=-2.22837766D-05 EMin= 1.68420115D-02
 Quartic linear search produced a step of -0.10208.
 Iteration  1 RMS(Cart)=  0.00398135 RMS(Int)=  0.00000852
 Iteration  2 RMS(Cart)=  0.00000529 RMS(Int)=  0.00000724
 Iteration  3 RMS(Cart)=  0.00000000 RMS(Int)=  0.00000724
 Iteration  1 RMS(Cart)=  0.00000166 RMS(Int)=  0.00000211
 Iteration  2 RMS(Cart)=  0.00000104 RMS(Int)=  0.00000234
 Iteration  3 RMS(Cart)=  0.00000065 RMS(Int)=  0.00000268
 ClnCor:  largest displacement from symmetrization is 2.04D-12 for atom     9.
 Variable       Old X    -DE/DX   Delta X   Delta X   Delta X     New X
                                 (Linear)    (Quad)   (Total)
    R1        2.91487  -0.00098  -0.00071  -0.00181  -0.00251   2.91235
    R2        2.63891  -0.00005  -0.00048   0.00075   0.00027   2.63918
    R3        2.05634  -0.00012  -0.00043   0.00036  -0.00007   2.05627
    R4        2.05596   0.00022   0.00048  -0.00015   0.00034   2.05629
    R5        2.63891  -0.00005  -0.00048   0.00075   0.00027   2.63918
    R6        2.05634  -0.00012  -0.00043   0.00036  -0.00007   2.05627
    R7        2.05596   0.00022   0.00048  -0.00015   0.00034   2.05629
    R8        1.78884  -0.00028  -0.00002  -0.00040  -0.00042   1.78842
    R9        1.78884  -0.00028  -0.00002  -0.00040  -0.00042   1.78842
    A1        1.93584  -0.00099  -0.00156  -0.00158  -0.00314   1.93269
    A2        1.90135  -0.00057  -0.00057  -0.00188  -0.00244   1.89891
    A3        1.90504   0.00034   0.00174  -0.00403  -0.00229   1.90276
    A4        1.93710  -0.00069  -0.00010   0.00461   0.00452   1.94162
    A5        1.91473   0.00191  -0.00007   0.00293   0.00283   1.91757
    A6        1.86829   0.00004   0.00066  -0.00015   0.00050   1.86879
    A7        1.93584  -0.00099  -0.00156  -0.00158  -0.00314   1.93269
    A8        1.90135  -0.00057  -0.00057  -0.00188  -0.00244   1.89891
    A9        1.90504   0.00034   0.00174  -0.00403  -0.00229   1.90276
   A10        1.93710  -0.00069  -0.00010   0.00461   0.00452   1.94162
   A11        1.91473   0.00191  -0.00007   0.00293   0.00283   1.91757
   A12        1.86829   0.00004   0.00066  -0.00015   0.00050   1.86879
   A13        1.89846  -0.00050  -0.00103  -0.00116  -0.00219   1.89627
   A14        1.89846  -0.00050  -0.00103  -0.00116  -0.00219   1.89627
    D1        0.22062   0.00370   0.00000   0.00000   0.00000   0.22062
    D2        2.35772   0.00181  -0.00149   0.00347   0.00198   2.35970
    D3       -1.89101   0.00173  -0.00004   0.00000  -0.00005  -1.89105
    D4        2.35772   0.00181  -0.00149   0.00347   0.00198   2.35970
    D5       -1.78837  -0.00008  -0.00298   0.00695   0.00397  -1.78440
    D6        0.24609  -0.00016  -0.00153   0.00347   0.00194   0.24803
    D7       -1.89101   0.00173  -0.00004   0.00000  -0.00005  -1.89105
    D8        0.24609  -0.00016  -0.00153   0.00347   0.00194   0.24803
    D9        2.28055  -0.00024  -0.00008   0.00000  -0.00009   2.28046
   D10       -3.12163  -0.00103  -0.00047  -0.00267  -0.00313  -3.12476
   D11        1.04536   0.00083   0.00136  -0.00233  -0.00096   1.04440
   D12       -1.01573   0.00001   0.00066  -0.00679  -0.00615  -1.02188
   D13       -3.12163  -0.00103  -0.00047  -0.00267  -0.00313  -3.12476
   D14        1.04536   0.00083   0.00136  -0.00233  -0.00096   1.04440
   D15       -1.01573   0.00001   0.00066  -0.00679  -0.00615  -1.02188
         Item               Value     Threshold  Converged?
 Maximum Force            0.000997     0.000450     NO 
 RMS     Force            0.000405     0.000300     NO 
 Maximum Displacement     0.008811     0.001800     NO 
 RMS     Displacement     0.003982     0.001200     NO 
 Predicted change in Energy=-1.403163D-05
 GradGradGradGradGradGradGradGradGradGradGradGradGradGradGradGradGradGrad

                          Input orientation:                          
 ---------------------------------------------------------------------
 Center     Atomic      Atomic             Coordinates (Angstroms)
 Number     Number       Type             X           Y           Z
 ---------------------------------------------------------------------
      1          6           0        0.124228    0.760496    0.596495
      2          6           0       -0.124228   -0.760496    0.596495
      3          1           0        0.233029    2.201915   -0.669153
      4          1           0       -0.233029   -2.201915   -0.669153
      5          8           0        0.062036    1.271670   -0.701699
      6          8           0       -0.062036   -1.271670   -0.701699
      7          1           0       -0.610623    1.235844    1.243078
      8          1           0        1.104012    0.959772    1.025876
      9          1           0        0.610624   -1.235844    1.243078
     10          1           0       -1.104012   -0.959772    1.025876
 ---------------------------------------------------------------------
                    Distance matrix (angstroms):
                    1          2          3          4          5
     1  C    0.000000
     2  C    1.541151   0.000000
     3  H    1.921300   3.241200   0.000000
     4  H    3.241200   1.921300   4.428422   0.000000
     5  O    1.396595   2.418616   0.946389   3.486247   0.000000
     6  O    2.418616   1.396595   3.486247   0.946389   2.546365
     7  H    1.088132   2.154071   2.302536   3.951884   2.058134
     8  H    1.088143   2.156910   2.274786   3.828455   2.041448
     9  H    2.154071   1.088132   3.951884   2.302536   3.220362
[...]
 ***** Axes restored to original set *****
 -------------------------------------------------------------------
 Center     Atomic                   Forces (Hartrees/Bohr)
 Number     Number              X              Y              Z
 -------------------------------------------------------------------
      1        6           0.006759528   -0.001259443   -0.000344366
      2        6          -0.006759528    0.001259443   -0.000344366
      3        1          -0.000004913    0.000007856   -0.000006477
      4        1           0.000004913   -0.000007856   -0.000006477
      5        8          -0.004119403    0.000732683    0.000349950
      6        8           0.004119403   -0.000732683    0.000349950
      7        1          -0.000007476    0.000009098   -0.000000805
      8        1          -0.000016876   -0.000020145    0.000001697
      9        1           0.000007476   -0.000009098   -0.000000805
     10        1           0.000016876    0.000020145    0.000001697
 -------------------------------------------------------------------
 Cartesian Forces:  Max     0.006759528 RMS     0.002082078

 GradGradGradGradGradGradGradGradGradGradGradGradGradGradGradGradGradGrad
 Berny optimization.
 Using GEDIIS/GDIIS optimizer.
 Internal  Forces:  Max     0.003869281 RMS     0.001027853
 Search for a local minimum.
 Step number   9 out of a maximum of   48
 All quantities printed in internal units (Hartrees-Bohrs-Radians)
 Mixed Optimization -- En-DIIS/RFO-DIIS
 Swaping is turned off.
 Update second derivatives using D2CorX and points    3    4    5    6    7
                                                      8    9
 DE= -2.05D-06 DEPred=-1.74D-06 R= 1.18D+00
 SS=  1.41D+00  RLast= 3.99D-02 DXNew= 1.4270D+00 1.1964D-01
 Trust test= 1.18D+00 RLast= 3.99D-02 DXMaxT set to 8.49D-01
     Eigenvalues ---    0.00218   0.01705   0.02358   0.05120   0.06076
     Eigenvalues ---    0.06751   0.11435   0.13327   0.13880   0.15003
     Eigenvalues ---    0.16000   0.17636   0.22009   0.27224   0.34911
     Eigenvalues ---    0.34923   0.34944   0.35698   0.40264   0.45783
     Eigenvalues ---    0.55537   0.58526   0.589841000.000001000.00000
     Eigenvalues --- 1000.000001000.000001000.000001000.000001000.00000
     Eigenvalues --- 1000.000001000.000001000.000001000.000001000.00000
     Eigenvalues --- 1000.000001000.000001000.00000
 En-DIIS/RFO-DIIS IScMMF=        0 using points:     9    8    7    6    5
 RFO step:  Lambda=-1.32913871D-06.
 DIIS coeffs:      1.23070     -0.48583      0.13360      0.07577      0.04576
 Iteration  1 RMS(Cart)=  0.00041252 RMS(Int)=  0.00000057
 Iteration  2 RMS(Cart)=  0.00000027 RMS(Int)=  0.00000051
 Iteration  1 RMS(Cart)=  0.00000064 RMS(Int)=  0.00000082
 ClnCor:  largest displacement from symmetrization is 5.27D-12 for atom    10.
 Variable       Old X    -DE/DX   Delta X   Delta X   Delta X     New X
                                  (DIIS)     (GDIIS)  (Total)
    R1        2.91368  -0.00009  -0.00016  -0.00010  -0.00026   2.91342
    R2        2.63829   0.00013   0.00013   0.00014   0.00027   2.63856
    R3        2.05595   0.00001   0.00005  -0.00004   0.00001   2.05596
    R4        2.05672  -0.00002  -0.00008   0.00004  -0.00004   2.05668
    R5        2.63829   0.00013   0.00013   0.00014   0.00027   2.63856
    R6        2.05595   0.00001   0.00005  -0.00004   0.00001   2.05596
    R7        2.05672  -0.00002  -0.00008   0.00004  -0.00004   2.05668
    R8        1.78850   0.00001   0.00000   0.00001   0.00001   1.78852
    R9        1.78850   0.00001   0.00000   0.00001   0.00001   1.78852
    A1        1.93303   0.00000   0.00006  -0.00008  -0.00001   1.93302
    A2        1.89929  -0.00033   0.00001   0.00005   0.00006   1.89935
    A3        1.90429   0.00033  -0.00015   0.00013  -0.00002   1.90426
    A4        1.94103  -0.00146  -0.00001  -0.00006  -0.00007   1.94096
    A5        1.91603   0.00147   0.00009  -0.00008   0.00002   1.91605
    A6        1.86871   0.00000  -0.00001   0.00004   0.00003   1.86874
    A7        1.93303   0.00000   0.00006  -0.00008  -0.00001   1.93302
    A8        1.89929  -0.00033   0.00001   0.00005   0.00006   1.89935
    A9        1.90429   0.00033  -0.00015   0.00013  -0.00002   1.90426
   A10        1.94103  -0.00146  -0.00001  -0.00006  -0.00007   1.94096
   A11        1.91603   0.00147   0.00009  -0.00008   0.00002   1.91605
   A12        1.86871   0.00000  -0.00001   0.00004   0.00003   1.86874
   A13        1.89650   0.00001   0.00003   0.00001   0.00004   1.89654
   A14        1.89650   0.00001   0.00003   0.00001   0.00004   1.89654
    D1        0.22062   0.00387   0.00000   0.00000   0.00000   0.22062
    D2        2.35944   0.00183   0.00004  -0.00009  -0.00006   2.35938
    D3       -1.89036   0.00183  -0.00006   0.00006   0.00000  -1.89036
    D4        2.35944   0.00183   0.00004  -0.00009  -0.00006   2.35938
    D5       -1.78493  -0.00021   0.00007  -0.00018  -0.00011  -1.78504
    D6        0.24846  -0.00021  -0.00002  -0.00003  -0.00005   0.24841
    D7       -1.89036   0.00183  -0.00006   0.00006   0.00000  -1.89036
    D8        0.24846  -0.00021  -0.00002  -0.00003  -0.00005   0.24841
    D9        2.28185  -0.00021  -0.00012   0.00012   0.00000   2.28185
   D10        3.13127  -0.00093  -0.00125  -0.00012  -0.00137   3.12990
   D11        1.01693   0.00048  -0.00130  -0.00009  -0.00139   1.01555
   D12       -1.04791   0.00044  -0.00134  -0.00006  -0.00139  -1.04930
   D13        3.13127  -0.00093  -0.00125  -0.00012  -0.00137   3.12990
   D14        1.01693   0.00048  -0.00130  -0.00009  -0.00139   1.01555
   D15       -1.04791   0.00044  -0.00134  -0.00006  -0.00139  -1.04930
         Item               Value     Threshold  Converged?
 Maximum Force            0.000128     0.000450     YES
 RMS     Force            0.000034     0.000300     YES
 Maximum Displacement     0.001307     0.001800     YES
 RMS     Displacement     0.000412     0.001200     YES
 Predicted change in Energy=-5.221132D-08
 Optimization completed.
    -- Stationary point found.
                           ----------------------------
                           !   Optimized Parameters   !
                           ! (Angstroms and Degrees)  !
 --------------------------                            --------------------------
 ! Name  Definition              Value          Derivative Info.                !
 --------------------------------------------------------------------------------
 ! R1    R(1,2)                  1.5419         -DE/DX =   -0.0001              !
 ! R2    R(1,5)                  1.3961         -DE/DX =    0.0001              !
 ! R3    R(1,7)                  1.088          -DE/DX =    0.0                 !
 ! R4    R(1,8)                  1.0884         -DE/DX =    0.0                 !
 ! R5    R(2,6)                  1.3961         -DE/DX =    0.0001              !
 ! R6    R(2,9)                  1.088          -DE/DX =    0.0                 !
 ! R7    R(2,10)                 1.0884         -DE/DX =    0.0                 !
 ! R8    R(3,5)                  0.9464         -DE/DX =    0.0                 !
 ! R9    R(4,6)                  0.9464         -DE/DX =    0.0                 !
 ! A1    A(2,1,5)              110.7547         -DE/DX =    0.0                 !
 ! A2    A(2,1,7)              108.8214         -DE/DX =   -0.0003              !
 ! A3    A(2,1,8)              109.1075         -DE/DX =    0.0003              !
 ! A4    A(5,1,7)              111.2126         -DE/DX =   -0.0015              !
 ! A5    A(5,1,8)              109.7807         -DE/DX =    0.0015              !
 ! A6    A(7,1,8)              107.0694         -DE/DX =    0.0                 !
 ! A7    A(1,2,6)              110.7547         -DE/DX =    0.0                 !
 ! A8    A(1,2,9)              108.8214         -DE/DX =   -0.0003              !
 ! A9    A(1,2,10)             109.1075         -DE/DX =    0.0003              !
 ! A10   A(6,2,9)              111.2126         -DE/DX =   -0.0015              !
 ! A11   A(6,2,10)             109.7807         -DE/DX =    0.0015              !
 ! A12   A(9,2,10)             107.0694         -DE/DX =    0.0                 !
 ! A13   A(1,5,3)              108.6613         -DE/DX =    0.0                 !
 ! A14   A(2,6,4)              108.6613         -DE/DX =    0.0                 !
 ! D1    D(5,1,2,6)             12.6405         -DE/DX =    0.0039              !
 ! D2    D(5,1,2,9)            135.1857         -DE/DX =    0.0018              !
 ! D3    D(5,1,2,10)          -108.3096         -DE/DX =    0.0018              !
 ! D4    D(7,1,2,6)            135.1857         -DE/DX =    0.0018              !
 ! D5    D(7,1,2,9)           -102.2691         -DE/DX =   -0.0002              !
 ! D6    D(7,1,2,10)            14.2356         -DE/DX =   -0.0002              !
 ! D7    D(8,1,2,6)           -108.3096         -DE/DX =    0.0018              !
 ! D8    D(8,1,2,9)             14.2356         -DE/DX =   -0.0002              !
 ! D9    D(8,1,2,10)           130.7404         -DE/DX =   -0.0002              !
 ! D10   D(2,1,5,3)            179.4085         -DE/DX =   -0.0009              !
 ! D11   D(7,1,5,3)             58.2661         -DE/DX =    0.0005              !
 ! D12   D(8,1,5,3)            -60.0409         -DE/DX =    0.0004              !
 ! D13   D(1,2,6,4)            179.4085         -DE/DX =   -0.0009              !
 ! D14   D(9,2,6,4)             58.2661         -DE/DX =    0.0005              !
 ! D15   D(10,2,6,4)           -60.0409         -DE/DX =    0.0004              !
 --------------------------------------------------------------------------------
 GradGradGradGradGradGradGradGradGradGradGradGradGradGradGradGradGradGrad

                          Input orientation:                          
 ---------------------------------------------------------------------
 Center     Atomic      Atomic             Coordinates (Angstroms)
 Number     Number       Type             X           Y           Z
 ---------------------------------------------------------------------
      1          6           0        0.127982    0.760228    0.595925
      2          6           0       -0.127982   -0.760228    0.595925
      3          1           0        0.220074    2.205495   -0.666297
      4          1           0       -0.220074   -2.205495   -0.666297
      5          8           0        0.068389    1.271963   -0.701661
      6          8           0       -0.068389   -1.271963   -0.701661
      7          1           0       -0.604438    1.239464    1.242111
      8          1           0        1.108996    0.956360    1.024518
      9          1           0        0.604439   -1.239464    1.242111
     10          1           0       -1.108996   -0.956360    1.024518
 ---------------------------------------------------------------------
                    Distance matrix (angstroms):
                    1          2          3          4          5
     1  C    0.000000
     2  C    1.541850   0.000000
     3  H    1.921063   3.241891   0.000000
     4  H    3.241891   1.921063   4.432896   0.000000
     5  O    1.396121   2.419110   0.946436   3.489581   0.000000
     6  O    2.419110   1.396121   3.489581   0.946436   2.547600
     7  H    1.087963   2.154840   2.292391   3.956956   2.057183
     8  H    1.088370   2.158814   2.282406   3.823952   2.040137
     9  H    2.154840   1.087963   3.956956   2.292391   3.220693
    10  H    2.158814   1.088370   3.823952   2.282406   3.054726
                    6          7          8          9         10
     6  O    0.000000
     7  H    3.220693   0.000000
     8  H    3.054726   1.750244   0.000000
     9  H    2.057183   2.757983   2.263530   0.000000
    10  H    2.040137   2.263530   2.928820   1.750244   0.000000
 Stoichiometry    C2H6O2
 Framework group  C2[X(C2H6O2)]
 Deg. of freedom    13
 Full point group                 C2      NOp   2
 Largest Abelian subgroup         C2      NOp   2
 Largest concise Abelian subgroup C2      NOp   2
                         Standard orientation:                         
 ---------------------------------------------------------------------
 Center     Atomic      Atomic             Coordinates (Angstroms)
 Number     Number       Type             X           Y           Z
 ---------------------------------------------------------------------
      1          6           0        0.054268    0.769013    0.621655
      2          6           0       -0.054268   -0.769013    0.621655
      3          1           0        0.006924    2.216437   -0.640567
      4          1           0       -0.006924   -2.216437   -0.640567
      5          8           0       -0.054268    1.272644   -0.675931
      6          8           0        0.054268   -1.272644   -0.675931
      7          1           0       -0.720851    1.175581    1.267840
      8          1           0        1.011870    1.058592    1.050247
      9          1           0        0.720851   -1.175581    1.267840
     10          1           0       -1.011870   -1.058592    1.050247
 ---------------------------------------------------------------------
 Rotational constants (GHZ):     15.1891395      6.0001897      4.5545718

 **********************************************************************

            Population analysis using the SCF density.

 **********************************************************************

 Orbital symmetries:
       Occupied  (B) (A) (A) (B) (A) (B) (A) (B) (A) (B) (B) (A)
                 (A) (B) (A) (B) (A)
       Virtual   (A) (B) (A) (B) (B) (A) (A) (B) (B) (A) (B) (A)
                 (B) (B) (A) (A) (A) (B) (B) (A) (A) (B) (B) (A)
                 (B) (A) (A) (B) (B) (A) (B) (A) (B) (A) (B) (B)
                 (A) (A) (A) (B) (B) (A) (A) (B) (B) (A) (A) (B)
                 (B) (A) (B) (A) (B) (A) (B)
 The electronic state is 1-A.
 Alpha  occ. eigenvalues --  -20.54943 -20.54942 -11.27274 -11.27218  -1.37107
 Alpha  occ. eigenvalues --   -1.34642  -0.99499  -0.83039  -0.72619  -0.66775
 Alpha  occ. eigenvalues --   -0.64977  -0.59291  -0.58044  -0.50919  -0.47669
 Alpha  occ. eigenvalues --   -0.45483  -0.41369
 Alpha virt. eigenvalues --    0.20962   0.25495   0.26807   0.28409   0.33179
 Alpha virt. eigenvalues --    0.36011   0.38963   0.42164   0.49933   0.76504
 Alpha virt. eigenvalues --    0.77756   0.80871   0.83690   0.90603   0.97162
 Alpha virt. eigenvalues --    1.05820   1.06068   1.10138   1.13407   1.13777
 Alpha virt. eigenvalues --    1.17702   1.22058   1.23461   1.24059   1.29447
 Alpha virt. eigenvalues --    1.34936   1.37016   1.50706   1.64921   1.69963
 Alpha virt. eigenvalues --    1.75809   1.77681   1.96939   2.03559   2.04374
 Alpha virt. eigenvalues --    2.11701   2.12383   2.18424   2.35914   2.41443
 Alpha virt. eigenvalues --    2.49518   2.51867   2.67478   2.67530   2.70859
 Alpha virt. eigenvalues --    2.83414   2.84523   2.89831   3.08035   3.15958
 Alpha virt. eigenvalues --    3.27600   4.10474   4.35602   4.59561   4.88076
          Condensed to atoms (all electrons):
              1          2          3          4          5          6
     1  C    4.793867   0.332362  -0.023366   0.005891   0.226387  -0.043307
     2  C    0.332362   4.793867   0.005891  -0.023366  -0.043307   0.226387
     3  H   -0.023366   0.005891   0.325891   0.000013   0.262322  -0.000037
     4  H    0.005891  -0.023366   0.000013   0.325891  -0.000037   0.262322
     5  O    0.226387  -0.043307   0.262322  -0.000037   8.346327  -0.003216
     6  O   -0.043307   0.226387  -0.000037   0.262322  -0.003216   8.346327
     7  H    0.402252  -0.047300  -0.004019  -0.000147  -0.038521   0.002121
     8  H    0.404775  -0.046775  -0.003577  -0.000171  -0.042034   0.001396
     9  H   -0.047300   0.402252  -0.000147  -0.004019   0.002121  -0.038521
    10  H   -0.046775   0.404775  -0.000171  -0.003577   0.001396  -0.042034
              7          8          9         10
     1  C    0.402252   0.404775  -0.047300  -0.046775
     2  C   -0.047300  -0.046775   0.402252   0.404775
     3  H   -0.004019  -0.003577  -0.000147  -0.000171
     4  H   -0.000147  -0.000171  -0.004019  -0.003577
     5  O   -0.038521  -0.042034   0.002121   0.001396
     6  O    0.002121   0.001396  -0.038521  -0.042034
     7  H    0.599070  -0.050354   0.003869  -0.006217
     8  H   -0.050354   0.598391  -0.006217   0.004789
     9  H    0.003869  -0.006217   0.599070  -0.050354
    10  H   -0.006217   0.004789  -0.050354   0.598391
 Mulliken atomic charges:
              1
     1  C   -0.004785
     2  C   -0.004785
     3  H    0.437199
     4  H    0.437199
     5  O   -0.711438
     6  O   -0.711438
     7  H    0.139247
     8  H    0.139777
     9  H    0.139247
    10  H    0.139777
 Sum of Mulliken atomic charges =   0.00000
 Mulliken charges with hydrogens summed into heavy atoms:
              1
     1  C    0.274238
     2  C    0.274238
     5  O   -0.274238
     6  O   -0.274238
 Sum of Mulliken charges with hydrogens summed into heavy atoms =   0.00000
 Electronic spatial extent (au):  <R**2>=            296.8532
 Charge=              0.0000 electrons
 Dipole moment (field-independent basis, Debye):
    X=              0.0000    Y=              0.0000    Z=              2.7360  Tot=              2.7360
 Quadrupole moment (field-independent basis, Debye-Ang):
   XX=            -25.4122   YY=            -14.7488   ZZ=            -26.7368
   XY=              0.5868   XZ=              0.0000   YZ=              0.0000
 Traceless Quadrupole moment (field-independent basis, Debye-Ang):
   XX=             -3.1129   YY=              7.5505   ZZ=             -4.4375
   XY=              0.5868   XZ=              0.0000   YZ=              0.0000
 Octapole moment (field-independent basis, Debye-Ang**2):
  XXX=              0.0000  YYY=              0.0000  ZZZ=             -3.2217  XYY=              0.0000
  XXY=              0.0000  XXZ=             -0.5612  XZZ=              0.0000  YZZ=              0.0000
  YYZ=             -6.8282  XYZ=             -0.5388
 Hexadecapole moment (field-independent basis, Debye-Ang**3):
 XXXX=            -36.1115 YYYY=           -131.0377 ZZZZ=           -104.4139 XXXY=              0.4645
 XXXZ=              0.0000 YYYX=              1.1344 YYYZ=              0.0000 ZZZX=              0.0000
 ZZZY=              0.0000 XXYY=            -42.3574 XXZZ=            -23.1182 YYZZ=            -50.0021
 XXYZ=              0.0000 YYXZ=              0.0000 ZZXY=             -0.2105
 N-N= 1.339330477057D+02 E-N=-8.077150103416D+02  KE= 2.285524460687D+02
 Symmetry A    KE= 1.153954643951D+02
 Symmetry B    KE= 1.131569816736D+02
 1\1\GINC-NODE7\FOpt\RHF\6-31G(d)\C2H6O2\WUCH\03-Sep-2010\0\\#HF/6-31G*
  Opt=ModRed MaxDisk=64GB\\12-ethanediol Rotatable Bond Optimization on
  node7.bme.utexas.edu\\0,1\C,0.1279818707,0.7602278122,0.5959254995\C,
 -0.1279818236,-0.7602278546,0.5959254735\H,0.2200740082,2.2054950787,-
 0.6662966686\H,-0.2200740259,-2.2054950671,-0.6662967518\O,0.068389407
 ,1.2719629937,-0.7016606832\O,-0.0683894265,-1.2719629806,-0.701660734
 2\H,-0.6044384913,1.2394641641,1.2421110267\H,1.1089961741,0.956359690
 5,1.0245178945\H,0.6044385714,-1.2394642343,1.2421109426\H,-1.10899610
 51,-0.9563597513,1.0245179103\\Version=EM64L-G09RevA.02\State=1-A\HF=-
 228.9063505\RMSD=4.424e-09\RMSF=2.082e-03\Dipole=0.,0.,1.0764272\Quadr
 upole=-2.1575269,5.4567126,-3.2991858,1.1871768,0.,0.0000002\PG=C02 [X
 (C2H6O2)]\\@


 THIS CURIOUS WORLD WHICH WE INHABIT IS MORE WONDERFUL THAN IT IS CONVENIENT;
 MORE BEAUTIFUL THAN IT IS USEFUL;
 IT IS MORE TO BE ADMIRED THAN IT IS TO BE USED.

                                                                 -- THOREAU
 Job cpu time:  0 days  0 hours  0 minutes 51.1 seconds.
 File lengths (MBytes):  RWF=      5 Int=      0 D2E=      0 Chk=      2 Scr=      1
 Normal termination of Gaussian 09 at Fri Sep  3 18:27:28 2010.
