 Entering Gaussian System, Link 0=/opt/g09/gaussian/g09/bin/g09
 Input=12-ethanediol-m06lsp-5-1-2-6-223.com
 Output=12-ethanediol-m06lsp-5-1-2-6-223.log
 Initial command:
 /opt/g09/gaussian/g09/bin/l1.exe /scratch/Gau-12-ethanediol/Gau-28662.inp -scrdir=/scratch/Gau-12-ethanediol/
 Entering Link 1 = /opt/g09/gaussian/g09/bin/l1.exe PID=     28663.
  
 Copyright (c) 1988,1990,1992,1993,1995,1998,2003,2009, Gaussian, Inc.
                  All Rights Reserved.
  
 This is part of the Gaussian(R) 09 program.  It is based on
 the Gaussian(R) 03 system (copyright 2003, Gaussian, Inc.),
 the Gaussian(R) 98 system (copyright 1998, Gaussian, Inc.),
 the Gaussian(R) 94 system (copyright 1995, Gaussian, Inc.),
 the Gaussian 92(TM) system (copyright 1992, Gaussian, Inc.),
 the Gaussian 90(TM) system (copyright 1990, Gaussian, Inc.),
 the Gaussian 88(TM) system (copyright 1988, Gaussian, Inc.),
 the Gaussian 86(TM) system (copyright 1986, Carnegie Mellon
 University), and the Gaussian 82(TM) system (copyright 1983,
 Carnegie Mellon University). Gaussian is a federally registered
 trademark of Gaussian, Inc.
  
 This software contains proprietary and confidential information,
 including trade secrets, belonging to Gaussian, Inc.
  
 This software is provided under written license and may be
 used, copied, transmitted, or stored only in accord with that
 written license.
  
 The following legend is applicable only to US Government
 contracts under FAR:
  
                    RESTRICTED RIGHTS LEGEND
  
 Use, reproduction and disclosure by the US Government is
 subject to restrictions as set forth in subparagraphs (a)
 and (c) of the Commercial Computer Software - Restricted
 Rights clause in FAR 52.227-19.
  
 Gaussian, Inc.
 340 Quinnipiac St., Bldg. 40, Wallingford CT 06492
  
  
 ---------------------------------------------------------------
 Warning -- This program may not be used in any manner that
 competes with the business of Gaussian, Inc. or will provide
 assistance to any competitor of Gaussian, Inc.  The licensee
 of this program is prohibited from giving any competitor of
 Gaussian, Inc. access to this program.  By using this program,
 the user acknowledges that Gaussian, Inc. is engaged in the
 business of creating and licensing software in the field of
 computational chemistry and represents and warrants to the
 licensee that it is not a competitor of Gaussian, Inc. and that
 it will not use this program in any manner prohibited above.
 ---------------------------------------------------------------
  

 Cite this work as:
 Gaussian 09, Revision A.02,
 M. J. Frisch, G. W. Trucks, H. B. Schlegel, G. E. Scuseria, 
 M. A. Robb, J. R. Cheeseman, G. Scalmani, V. Barone, B. Mennucci, 
 G. A. Petersson, H. Nakatsuji, M. Caricato, X. Li, H. P. Hratchian, 
 A. F. Izmaylov, J. Bloino, G. Zheng, J. L. Sonnenberg, M. Hada, 
 M. Ehara, K. Toyota, R. Fukuda, J. Hasegawa, M. Ishida, T. Nakajima, 
 Y. Honda, O. Kitao, H. Nakai, T. Vreven, J. A. Montgomery, Jr., 
 J. E. Peralta, F. Ogliaro, M. Bearpark, J. J. Heyd, E. Brothers, 
 K. N. Kudin, V. N. Staroverov, R. Kobayashi, J. Normand, 
 K. Raghavachari, A. Rendell, J. C. Burant, S. S. Iyengar, J. Tomasi, 
 M. Cossi, N. Rega, J. M. Millam, M. Klene, J. E. Knox, J. B. Cross, 
 V. Bakken, C. Adamo, J. Jaramillo, R. Gomperts, R. E. Stratmann, 
 O. Yazyev, A. J. Austin, R. Cammi, C. Pomelli, J. W. Ochterski, 
 R. L. Martin, K. Morokuma, V. G. Zakrzewski, G. A. Voth, 
 P. Salvador, J. J. Dannenberg, S. Dapprich, A. D. Daniels, 
 O. Farkas, J. B. Foresman, J. V. Ortiz, J. Cioslowski, 
 and D. J. Fox, Gaussian, Inc., Wallingford CT, 2009.
 
 ******************************************
 Gaussian 09:  EM64L-G09RevA.02 11-Jun-2009
                 3-Sep-2010 
 ******************************************
 %RWF=/scratch/Gau-12-ethanediol/,64GB
 %Chk=12-ethanediol-m06lsp-5-1-2-6-223.chk
 %Mem=778484KB
 %Nproc=1
 Will use up to    1 processors via shared memory.
 --------------------------------------------------------------
 #M06L/6-31G** SP SCF=(qc,maxcycle=800) Guess=Indo MaxDisk=64GB
 --------------------------------------------------------------
 1/38=1/1;
 2/12=2,17=6,18=5,40=1/2;
 3/5=1,6=6,7=101,11=2,16=1,25=1,30=1,74=-53/1,2,3;
 4/5=4,11=3/1;
 5/5=2,7=800,8=3,38=5/8;
 6/7=2,8=2,9=2,10=2,28=1/1;
 99/5=1,9=1/99;
 -------------------------------------------------------------------
 12-ethanediol Rotatable Bond SP Calculation on node7.bme.utexas.edu
 -------------------------------------------------------------------
 Symbolic Z-matrix:
 Charge =  0 Multiplicity = 1
 C                    -0.40856   0.64372   0.23495 
 C                     0.40856  -0.64372   0.23495 
 H                    -0.06604   2.49655  -0.22197 
 H                     0.06604  -2.49655  -0.22197 
 O                     0.40856   1.67811  -0.25064 
 O                    -0.40856  -1.67811  -0.25064 
 H                    -1.2651    0.49215  -0.41408 
 H                    -0.77624   0.87453   1.23145 
 H                     1.2651   -0.49215  -0.41408 
 H                     0.77624  -0.87453   1.23145 
 
                          Input orientation:                          
 ---------------------------------------------------------------------
 Center     Atomic      Atomic             Coordinates (Angstroms)
 Number     Number       Type             X           Y           Z
 ---------------------------------------------------------------------
      1          6           0       -0.408555    0.643721    0.234947
      2          6           0        0.408555   -0.643721    0.234947
      3          1           0       -0.066036    2.496548   -0.221966
      4          1           0        0.066036   -2.496548   -0.221966
      5          8           0        0.408555    1.678113   -0.250635
      6          8           0       -0.408555   -1.678113   -0.250635
      7          1           0       -1.265099    0.492147   -0.414080
      8          1           0       -0.776244    0.874531    1.231446
      9          1           0        1.265099   -0.492147   -0.414080
     10          1           0        0.776244   -0.874531    1.231446
 ---------------------------------------------------------------------
                    Distance matrix (angstroms):
                    1          2          3          4          5
     1  C    0.000000
     2  C    1.524853   0.000000
     3  H    1.938829   3.208628   0.000000
     4  H    3.208628   1.938829   4.994842   0.000000
     5  O    1.404787   2.372067   0.946517   4.188787   0.000000
     6  O    2.372067   1.404787   4.188787   0.946517   3.454261
     7  H    1.085301   2.124276   2.343562   3.277366   2.057753
     8  H    1.086958   2.168375   2.290795   3.766433   2.060596
     9  H    2.124276   1.085301   3.277366   2.343562   2.338891
    10  H    2.168375   1.086958   3.766433   2.290795   2.974517
                    6          7          8          9         10
     6  O    0.000000
     7  H    2.338891   0.000000
     8  H    2.974517   1.758679   0.000000
     9  H    2.057753   2.714910   2.956797   0.000000
    10  H    2.060596   2.956797   2.338683   1.758679   0.000000
 Stoichiometry    C2H6O2
 Framework group  C2[X(C2H6O2)]
 Deg. of freedom    13
 Full point group                 C2      NOp   2
 Largest Abelian subgroup         C2      NOp   2
 Largest concise Abelian subgroup C2      NOp   2
                         Standard orientation:                         
 ---------------------------------------------------------------------
 Center     Atomic      Atomic             Coordinates (Angstroms)
 Number     Number       Type             X           Y           Z
 ---------------------------------------------------------------------
      1          6           0       -0.408555    0.643721    0.234947
      2          6           0        0.408555   -0.643721    0.234947
      3          1           0       -0.066036    2.496548   -0.221966
      4          1           0        0.066036   -2.496548   -0.221966
      5          8           0        0.408555    1.678113   -0.250635
      6          8           0       -0.408555   -1.678113   -0.250635
      7          1           0       -1.265099    0.492147   -0.414080
      8          1           0       -0.776244    0.874531    1.231446
      9          1           0        1.265099   -0.492147   -0.414080
     10          1           0        0.776244   -0.874531    1.231446
 ---------------------------------------------------------------------
 Rotational constants (GHZ):     26.5401742      4.1086651      3.9354142
 Standard basis: 6-31G(d,p) (6D, 7F)
 There are    45 symmetry adapted basis functions of A   symmetry.
 There are    45 symmetry adapted basis functions of B   symmetry.
 Integral buffers will be    131072 words long.
 Raffenetti 2 integral format.
 Two-electron integral symmetry is turned on.
    90 basis functions,   154 primitive gaussians,    90 cartesian basis functions
    17 alpha electrons       17 beta electrons
       nuclear repulsion energy       131.4031535048 Hartrees.
 NAtoms=   10 NActive=   10 NUniq=    5 SFac= 3.00D+00 NAtFMM=   80 NAOKFM=F Big=F
 One-electron integrals computed using PRISM.
 NBasis=    90 RedAO= T  NBF=    45    45
 NBsUse=    90 1.00D-06 NBFU=    45    45
 Projected INDO guess.
 Initial guess orbital symmetries:
       Occupied  (A) (B) (B) (A) (A) (B) (A) (B) (A) (B) (A) (B)
                 (A) (B) (A) (A) (B)
       Virtual   (B) (A) (B) (A) (A) (B) (B) (B) (A) (A) (A) (A)
                 (A) (A) (A) (A) (A) (A) (A) (A) (A) (A) (A) (A)
                 (A) (A) (A) (A) (A) (A) (A) (A) (A) (A) (A) (A)
                 (A) (A) (A) (A) (A) (B) (B) (B) (B) (B) (B) (B)
                 (B) (B) (B) (B) (B) (B) (B) (B) (B) (B) (B) (B)
                 (B) (B) (B) (B) (B) (B) (B) (B) (B) (B) (B) (B)
                 (B)
 The electronic state of the initial guess is 1-A.
 Keep J ints in memory in canonical form, NReq=9445881.
 Gradient too large for Newton-Raphson -- use scaled steepest descent instead.
 Gradient too large for Newton-Raphson -- use scaled steepest descent instead.
 Gradient too large for Newton-Raphson -- use scaled steepest descent instead.
 Gradient too large for Newton-Raphson -- use scaled steepest descent instead.
 Gradient too large for Newton-Raphson -- use scaled steepest descent instead.
 Gradient too large for Newton-Raphson -- use scaled steepest descent instead.
 Gradient too large for Newton-Raphson -- use scaled steepest descent instead.
 LinEq1:  Iter=  0 NonCon=     1 RMS=5.56D-05 Max=7.00D-04
 AX will form     1 AO Fock derivatives at one time.
 LinEq1:  Iter=  1 NonCon=     1 RMS=2.84D-05 Max=2.64D-04
 LinEq1:  Iter=  2 NonCon=     1 RMS=2.34D-06 Max=2.05D-05
 LinEq1:  Iter=  3 NonCon=     1 RMS=1.67D-07 Max=1.45D-06
 LinEq1:  Iter=  4 NonCon=     1 RMS=2.97D-08 Max=3.53D-07
 LinEq1:  Iter=  5 NonCon=     1 RMS=1.69D-08 Max=1.08D-07
 LinEq1:  Iter=  6 NonCon=     0 RMS=2.64D-09 Max=1.87D-08
 Linear equations converged to 4.982D-09 4.982D-08 after     6 iterations.
 LinEq1:  Iter=  0 NonCon=     1 RMS=1.95D-08 Max=2.70D-07
 LinEq1:  Iter=  1 NonCon=     1 RMS=4.92D-09 Max=4.37D-08
 LinEq1:  Iter=  2 NonCon=     1 RMS=2.52D-09 Max=2.14D-08
 LinEq1:  Iter=  3 NonCon=     1 RMS=1.21D-09 Max=1.26D-08
 LinEq1:  Iter=  4 NonCon=     1 RMS=6.50D-10 Max=6.49D-09
 LinEq1:  Iter=  5 NonCon=     1 RMS=1.89D-10 Max=1.66D-09
 LinEq1:  Iter=  6 NonCon=     1 RMS=4.43D-11 Max=4.72D-10
 LinEq1:  Iter=  7 NonCon=     1 RMS=1.12D-11 Max=8.91D-11
 LinEq1:  Iter=  8 NonCon=     0 RMS=2.27D-12 Max=2.22D-11
 Linear equations converged to 7.648D-12 7.648D-11 after     8 iterations.
 Search did not lower the energy significantly.
 No lower point found -- using Newton-Raphson step.
 SCF Done:  E(RM06L) =  -230.212980734     a.u. after   10 cycles
            Convg  =    0.1420D-10                    60 Fock formations.
              S**2 =  0.0000                  -V/T =  2.0067

 **********************************************************************

            Population analysis using the SCF density.

 **********************************************************************

 Orbital symmetries:
       Occupied  (A) (B) (A) (B) (A) (B) (A) (B) (B) (A) (A) (A)
                 (B) (B) (A) (A) (B)
       Virtual   (B) (A) (A) (A) (B) (B) (B) (A) (B) (A) (A) (B)
                 (A) (B) (B) (A) (B) (A) (B) (A) (B) (A) (B) (A)
                 (A) (B) (B) (A) (B) (A) (B) (A) (B) (A) (B) (A)
                 (B) (A) (B) (A) (B) (A) (B) (A) (B) (A) (B) (A)
                 (B) (A) (B) (A) (B) (A) (B) (B) (A) (A) (B) (A)
                 (B) (B) (A) (A) (B) (B) (A) (A) (B) (A) (B) (A)
                 (B)
 The electronic state is 1-A.
 Alpha  occ. eigenvalues --  -18.97634 -18.97634 -10.09850 -10.09837  -0.99867
 Alpha  occ. eigenvalues --   -0.98838  -0.69990  -0.56996  -0.49542  -0.46704
 Alpha  occ. eigenvalues --   -0.40916  -0.37885  -0.36498  -0.31165  -0.28293
 Alpha  occ. eigenvalues --   -0.22684  -0.22168
 Alpha virt. eigenvalues --    0.07466   0.09400   0.13846   0.15416   0.15838
 Alpha virt. eigenvalues --    0.17312   0.20682   0.24153   0.25451   0.53792
 Alpha virt. eigenvalues --    0.56151   0.56204   0.62146   0.63385   0.73881
 Alpha virt. eigenvalues --    0.77256   0.78089   0.81909   0.82220   0.84772
 Alpha virt. eigenvalues --    0.85951   0.90417   0.95965   0.98701   0.99475
 Alpha virt. eigenvalues --    1.00152   1.05907   1.19419   1.24621   1.36088
 Alpha virt. eigenvalues --    1.40248   1.48281   1.58297   1.59231   1.62408
 Alpha virt. eigenvalues --    1.63563   1.76412   1.84293   1.92680   1.93504
 Alpha virt. eigenvalues --    1.94444   1.96164   1.98577   2.01787   2.13156
 Alpha virt. eigenvalues --    2.17267   2.33300   2.36508   2.40513   2.41940
 Alpha virt. eigenvalues --    2.48495   2.64590   2.65648   2.68014   2.73117
 Alpha virt. eigenvalues --    2.75513   2.75683   2.79910   2.81411   2.87706
 Alpha virt. eigenvalues --    2.95193   3.07458   3.10767   3.32667   3.39032
 Alpha virt. eigenvalues --    3.50535   3.52969   3.54617   3.57739   3.99360
 Alpha virt. eigenvalues --    4.02812   4.40774   4.71375
          Condensed to atoms (all electrons):
              1          2          3          4          5          6
     1  C    4.796193   0.343729  -0.022685   0.007038   0.219456  -0.048610
     2  C    0.343729   4.796193   0.007038  -0.022685  -0.048610   0.219456
     3  H   -0.022685   0.007038   0.400101   0.000008   0.293889  -0.000122
     4  H    0.007038  -0.022685   0.000008   0.400101  -0.000122   0.293889
     5  O    0.219456  -0.048610   0.293889  -0.000122   8.188159   0.000814
     6  O   -0.048610   0.219456  -0.000122   0.293889   0.000814   8.188159
     7  H    0.391961  -0.056155  -0.004794   0.000105  -0.037502   0.006321
     8  H    0.374221  -0.036340  -0.005440  -0.000420  -0.040838   0.002805
     9  H   -0.056155   0.391961   0.000105  -0.004794   0.006321  -0.037502
    10  H   -0.036340   0.374221  -0.000420  -0.005440   0.002805  -0.040838
              7          8          9         10
     1  C    0.391961   0.374221  -0.056155  -0.036340
     2  C   -0.056155  -0.036340   0.391961   0.374221
     3  H   -0.004794  -0.005440   0.000105  -0.000420
     4  H    0.000105  -0.000420  -0.004794  -0.005440
     5  O   -0.037502  -0.040838   0.006321   0.002805
     6  O    0.006321   0.002805  -0.037502  -0.040838
     7  H    0.626073  -0.054341  -0.000808   0.006069
     8  H   -0.054341   0.666296   0.006069  -0.009798
     9  H   -0.000808   0.006069   0.626073  -0.054341
    10  H    0.006069  -0.009798  -0.054341   0.666296
 Mulliken atomic charges:
              1
     1  C    0.031194
     2  C    0.031194
     3  H    0.332319
     4  H    0.332319
     5  O   -0.584373
     6  O   -0.584373
     7  H    0.123072
     8  H    0.097788
     9  H    0.123072
    10  H    0.097788
 Sum of Mulliken atomic charges =   0.00000
 Mulliken charges with hydrogens summed into heavy atoms:
              1
     1  C    0.252054
     2  C    0.252054
     5  O   -0.252054
     6  O   -0.252054
 Sum of Mulliken charges with hydrogens summed into heavy atoms =   0.00000
 Electronic spatial extent (au):  <R**2>=            331.8790
 Charge=              0.0000 electrons
 Dipole moment (field-independent basis, Debye):
    X=              0.0000    Y=              0.0000    Z=              0.8781  Tot=              0.8781
 Quadrupole moment (field-independent basis, Debye-Ang):
   XX=            -25.8930   YY=            -17.0665   ZZ=            -25.2277
   XY=             -5.4626   XZ=              0.0000   YZ=              0.0000
 Traceless Quadrupole moment (field-independent basis, Debye-Ang):
   XX=             -3.1639   YY=              5.6626   ZZ=             -2.4987
   XY=             -5.4626   XZ=              0.0000   YZ=              0.0000
 Octapole moment (field-independent basis, Debye-Ang**2):
  XXX=              0.0000  YYY=              0.0000  ZZZ=             -0.8868  XYY=              0.0000
  XXY=              0.0000  XXZ=             -0.8842  XZZ=              0.0000  YZZ=              0.0000
  YYZ=             -1.6813  XYZ=              1.0581
 Hexadecapole moment (field-independent basis, Debye-Ang**3):
 XXXX=            -63.6379 YYYY=           -167.9279 ZZZZ=            -44.4901 XXXY=             -9.8282
 XXXZ=              0.0000 YYYX=            -25.9136 YYYZ=              0.0000 ZZZX=              0.0000
 ZZZY=              0.0000 XXYY=            -60.0553 XXZZ=            -17.6979 YYZZ=            -54.2042
 XXYZ=              0.0000 YYXZ=              0.0000 ZZXY=             -3.8646
 N-N= 1.314031535048D+02 E-N=-8.030584402637D+02  KE= 2.286770884319D+02
 Symmetry A    KE= 1.157747881323D+02
 Symmetry B    KE= 1.129023002995D+02
 1\1\GINC-NODE7\SP\RM06L\6-31G(d,p)\C2H6O2\WUCH\03-Sep-2010\0\\#M06L/6-
 31G** SP SCF=(qc,maxcycle=800) Guess=Indo MaxDisk=64GB\\12-ethanediol 
 Rotatable Bond SP Calculation on node7.bme.utexas.edu\\0,1\C,0,-0.4085
 55,0.643721,0.234947\C,0,0.408555,-0.643721,0.234947\H,0,-0.066036,2.4
 96548,-0.221966\H,0,0.066036,-2.496548,-0.221966\O,0,0.408555,1.678113
 ,-0.250635\O,0,-0.408555,-1.678113,-0.250635\H,0,-1.265099,0.492147,-0
 .41408\H,0,-0.776244,0.874531,1.231446\H,0,1.265099,-0.492147,-0.41408
 \H,0,0.776244,-0.874531,1.231446\\Version=EM64L-G09RevA.02\State=1-A\H
 F=-230.2129807\RMSD=0.000e+00\Dipole=0.,0.,0.345452\Quadrupole=-2.3522
 732,4.2099855,-1.8577122,-4.0612824,0.,0.\PG=C02 [X(C2H6O2)]\\@


 A ROPE OVER THE TOP OF A FENCE HAS THE SAME LENGTH ON EACH SIDE.
 WEIGHS 1/3 POUND PER FOOT.  ON ONE END HANGS A MONKEY HOLDING A
 BANANA, AND ON THE OTHER END A WEIGHT EQUAL TO THE WEIGHT
 OF THE MONKEY.  THE BANANA WEIGHS TWO OUNCES PER INCH.
 THE ROPE IS AS LONG AS THE AGE OF THE MONKEY, 
 AND THE WEIGHT OF THE MONKEY (IN OUNCES) IS AS MUCH
 AS THE AGE OF THE MONKEY'S MOTHER.  THE COMBINED AGES OF MONKEY
 AND MOTHER ARE THIRTY YEARS.  HALF THE WEIGHT OF THE MONKEY,
  PLUS THE WEIGHT OF THE BANANA, IS ONE FOURTH AS MUCH AS THE WEIGHT
 OF THE WEIGHT AND THE ROPE.
 THE MONKEY'S MOTHER IS HALF AS OLD AS THE MONKEY WILL BE
 WHEN IT IS 3 TIMES AS OLD AS ITS MOTHER WAS WHEN
 SHE WAS HALF AS OLD AS THE MONKEY WILL BE WHEN IT IS
 AS OLD AS ITS MOTHER WILL BE WHEN SHE IS 4 TIMES AS
 OLD AS THE MONKEY WAS WHEN IT WAS TWICE AS OLD AS 
 ITS MOTHER WAS WHEN SHE WAS ONE THIRD AS OLD AS THE
 MONKEY WAS WHEN IT WAS AS OLD AS ITS MOTHER WAS WHEN 
 SHE WAS 3 TIMES AS OLD AS THE MONKEY WAS WHEN IT WAS AS OLD AS ITS
 MOTHER WAS WHEN SHE WAS 3 TIMES AS OLD AS THE MONKEY 
 WAS WHEN IT WAS ONE FOURTH WAS OLD AS IT IS NOW.

 HOW LONG IS THE BANANA?
 Job cpu time:  0 days  0 hours  6 minutes 57.3 seconds.
 File lengths (MBytes):  RWF=      5 Int=      0 D2E=      0 Chk=      1 Scr=      1
 Normal termination of Gaussian 09 at Fri Sep  3 18:20:39 2010.
