 Entering Gaussian System, Link 0=/opt/g09/gaussian/g09/bin/g09
 Input=12-ethanediol-m06lsp-5-1-2-6-313.com
 Output=12-ethanediol-m06lsp-5-1-2-6-313.log
 Initial command:
 /opt/g09/gaussian/g09/bin/l1.exe /scratch/Gau-12-ethanediol/Gau-29183.inp -scrdir=/scratch/Gau-12-ethanediol/
 Entering Link 1 = /opt/g09/gaussian/g09/bin/l1.exe PID=     29184.
  
 Copyright (c) 1988,1990,1992,1993,1995,1998,2003,2009, Gaussian, Inc.
                  All Rights Reserved.
  
 This is part of the Gaussian(R) 09 program.  It is based on
 the Gaussian(R) 03 system (copyright 2003, Gaussian, Inc.),
 the Gaussian(R) 98 system (copyright 1998, Gaussian, Inc.),
 the Gaussian(R) 94 system (copyright 1995, Gaussian, Inc.),
 the Gaussian 92(TM) system (copyright 1992, Gaussian, Inc.),
 the Gaussian 90(TM) system (copyright 1990, Gaussian, Inc.),
 the Gaussian 88(TM) system (copyright 1988, Gaussian, Inc.),
 the Gaussian 86(TM) system (copyright 1986, Carnegie Mellon
 University), and the Gaussian 82(TM) system (copyright 1983,
 Carnegie Mellon University). Gaussian is a federally registered
 trademark of Gaussian, Inc.
  
 This software contains proprietary and confidential information,
 including trade secrets, belonging to Gaussian, Inc.
  
 This software is provided under written license and may be
 used, copied, transmitted, or stored only in accord with that
 written license.
  
 The following legend is applicable only to US Government
 contracts under FAR:
  
                    RESTRICTED RIGHTS LEGEND
  
 Use, reproduction and disclosure by the US Government is
 subject to restrictions as set forth in subparagraphs (a)
 and (c) of the Commercial Computer Software - Restricted
 Rights clause in FAR 52.227-19.
  
 Gaussian, Inc.
 340 Quinnipiac St., Bldg. 40, Wallingford CT 06492
  
  
 ---------------------------------------------------------------
 Warning -- This program may not be used in any manner that
 competes with the business of Gaussian, Inc. or will provide
 assistance to any competitor of Gaussian, Inc.  The licensee
 of this program is prohibited from giving any competitor of
 Gaussian, Inc. access to this program.  By using this program,
 the user acknowledges that Gaussian, Inc. is engaged in the
 business of creating and licensing software in the field of
 computational chemistry and represents and warrants to the
 licensee that it is not a competitor of Gaussian, Inc. and that
 it will not use this program in any manner prohibited above.
 ---------------------------------------------------------------
  

 Cite this work as:
 Gaussian 09, Revision A.02,
 M. J. Frisch, G. W. Trucks, H. B. Schlegel, G. E. Scuseria, 
 M. A. Robb, J. R. Cheeseman, G. Scalmani, V. Barone, B. Mennucci, 
 G. A. Petersson, H. Nakatsuji, M. Caricato, X. Li, H. P. Hratchian, 
 A. F. Izmaylov, J. Bloino, G. Zheng, J. L. Sonnenberg, M. Hada, 
 M. Ehara, K. Toyota, R. Fukuda, J. Hasegawa, M. Ishida, T. Nakajima, 
 Y. Honda, O. Kitao, H. Nakai, T. Vreven, J. A. Montgomery, Jr., 
 J. E. Peralta, F. Ogliaro, M. Bearpark, J. J. Heyd, E. Brothers, 
 K. N. Kudin, V. N. Staroverov, R. Kobayashi, J. Normand, 
 K. Raghavachari, A. Rendell, J. C. Burant, S. S. Iyengar, J. Tomasi, 
 M. Cossi, N. Rega, J. M. Millam, M. Klene, J. E. Knox, J. B. Cross, 
 V. Bakken, C. Adamo, J. Jaramillo, R. Gomperts, R. E. Stratmann, 
 O. Yazyev, A. J. Austin, R. Cammi, C. Pomelli, J. W. Ochterski, 
 R. L. Martin, K. Morokuma, V. G. Zakrzewski, G. A. Voth, 
 P. Salvador, J. J. Dannenberg, S. Dapprich, A. D. Daniels, 
 O. Farkas, J. B. Foresman, J. V. Ortiz, J. Cioslowski, 
 and D. J. Fox, Gaussian, Inc., Wallingford CT, 2009.
 
 ******************************************
 Gaussian 09:  EM64L-G09RevA.02 11-Jun-2009
                 3-Sep-2010 
 ******************************************
 %RWF=/scratch/Gau-12-ethanediol/,64GB
 %Chk=12-ethanediol-m06lsp-5-1-2-6-313.chk
 %Mem=778484KB
 %Nproc=1
 Will use up to    1 processors via shared memory.
 --------------------------------------------------------------
 #M06L/6-31G** SP SCF=(qc,maxcycle=800) Guess=Indo MaxDisk=64GB
 --------------------------------------------------------------
 1/38=1/1;
 2/12=2,17=6,18=5,40=1/2;
 3/5=1,6=6,7=101,11=2,16=1,25=1,30=1,74=-53/1,2,3;
 4/5=4,11=3/1;
 5/5=2,7=800,8=3,38=5/8;
 6/7=2,8=2,9=2,10=2,28=1/1;
 99/5=1,9=1/99;
 -------------------------------------------------------------------
 12-ethanediol Rotatable Bond SP Calculation on node7.bme.utexas.edu
 -------------------------------------------------------------------
 Symbolic Z-matrix:
 Charge =  0 Multiplicity = 1
 C                    -0.19494   0.73288   0.58118 
 C                     0.19494  -0.73288   0.58118 
 H                    -0.10319   2.22029  -0.64275 
 H                     0.10319  -2.22029  -0.64275 
 O                     0.19494   1.32244  -0.62353 
 O                    -0.19494  -1.32244  -0.62353 
 H                    -1.27362   0.81089   0.70475 
 H                     0.27357   1.21315   1.4392 
 H                     1.27362  -0.81089   0.70475 
 H                    -0.27357  -1.21315   1.4392 
 
                          Input orientation:                          
 ---------------------------------------------------------------------
 Center     Atomic      Atomic             Coordinates (Angstroms)
 Number     Number       Type             X           Y           Z
 ---------------------------------------------------------------------
      1          6           0       -0.194940    0.732875    0.581177
      2          6           0        0.194940   -0.732875    0.581177
      3          1           0       -0.103191    2.220285   -0.642746
      4          1           0        0.103191   -2.220285   -0.642746
      5          8           0        0.194940    1.322443   -0.623533
      6          8           0       -0.194940   -1.322443   -0.623533
      7          1           0       -1.273624    0.810890    0.704748
      8          1           0        0.273566    1.213155    1.439200
      9          1           0        1.273624   -0.810890    0.704748
     10          1           0       -0.273566   -1.213155    1.439200
 ---------------------------------------------------------------------
                    Distance matrix (angstroms):
                    1          2          3          4          5
     1  C    0.000000
     2  C    1.516717   0.000000
     3  H    1.928417   3.210611   0.000000
     4  H    3.210611   1.928417   4.445363   0.000000
     5  O    1.396754   2.382364   0.946241   3.543968   0.000000
     6  O    2.382364   1.396754   3.543968   0.946241   2.673467
     7  H    1.088538   2.134282   2.274214   3.591571   2.045164
     8  H    1.089206   2.128243   2.343236   4.018960   2.067122
     9  H    2.134282   1.088538   3.591571   2.274214   2.734776
    10  H    2.128243   1.089206   4.018960   2.343236   3.302063
                    6          7          8          9         10
     6  O    0.000000
     7  H    2.734776   0.000000
     8  H    3.302063   1.759271   0.000000
     9  H    2.045164   3.019709   2.374088   0.000000
    10  H    2.067122   2.374088   2.487234   1.759271   0.000000
 Stoichiometry    C2H6O2
 Framework group  C2[X(C2H6O2)]
 Deg. of freedom    13
 Full point group                 C2      NOp   2
 Largest Abelian subgroup         C2      NOp   2
 Largest concise Abelian subgroup C2      NOp   2
                         Standard orientation:                         
 ---------------------------------------------------------------------
 Center     Atomic      Atomic             Coordinates (Angstroms)
 Number     Number       Type             X           Y           Z
 ---------------------------------------------------------------------
      1          6           0       -0.194940    0.732875    0.581177
      2          6           0        0.194940   -0.732875    0.581177
      3          1           0       -0.103191    2.220285   -0.642746
      4          1           0        0.103191   -2.220285   -0.642746
      5          8           0        0.194940    1.322443   -0.623533
      6          8           0       -0.194940   -1.322443   -0.623533
      7          1           0       -1.273624    0.810890    0.704748
      8          1           0        0.273566    1.213155    1.439200
      9          1           0        1.273624   -0.810890    0.704748
     10          1           0       -0.273566   -1.213155    1.439200
 ---------------------------------------------------------------------
 Rotational constants (GHZ):     15.8583978      5.7018547      4.6116953
 Standard basis: 6-31G(d,p) (6D, 7F)
 There are    45 symmetry adapted basis functions of A   symmetry.
 There are    45 symmetry adapted basis functions of B   symmetry.
 Integral buffers will be    131072 words long.
 Raffenetti 2 integral format.
 Two-electron integral symmetry is turned on.
    90 basis functions,   154 primitive gaussians,    90 cartesian basis functions
    17 alpha electrons       17 beta electrons
       nuclear repulsion energy       134.0786498877 Hartrees.
 NAtoms=   10 NActive=   10 NUniq=    5 SFac= 3.00D+00 NAtFMM=   80 NAOKFM=F Big=F
 One-electron integrals computed using PRISM.
 NBasis=    90 RedAO= T  NBF=    45    45
 NBsUse=    90 1.00D-06 NBFU=    45    45
 Projected INDO guess.
 Initial guess orbital symmetries:
       Occupied  (B) (A) (B) (A) (A) (B) (A) (B) (A) (B) (A) (B)
                 (A) (B) (B) (A) (A)
       Virtual   (B) (A) (B) (A) (B) (A) (A) (B) (B) (A) (A) (A)
                 (A) (A) (A) (A) (A) (A) (A) (A) (A) (A) (A) (A)
                 (A) (A) (A) (A) (A) (A) (A) (A) (A) (A) (A) (A)
                 (A) (A) (A) (A) (A) (B) (B) (B) (B) (B) (B) (B)
                 (B) (B) (B) (B) (B) (B) (B) (B) (B) (B) (B) (B)
                 (B) (B) (B) (B) (B) (B) (B) (B) (B) (B) (B) (B)
                 (B)
 The electronic state of the initial guess is 1-A.
 Keep J ints in memory in canonical form, NReq=9445297.
 Gradient too large for Newton-Raphson -- use scaled steepest descent instead.
 Gradient too large for Newton-Raphson -- use scaled steepest descent instead.
 Gradient too large for Newton-Raphson -- use scaled steepest descent instead.
 Gradient too large for Newton-Raphson -- use scaled steepest descent instead.
 Gradient too large for Newton-Raphson -- use scaled steepest descent instead.
 Gradient too large for Newton-Raphson -- use scaled steepest descent instead.
 Gradient too large for Newton-Raphson -- use scaled steepest descent instead.
 LinEq1:  Iter=  0 NonCon=     1 RMS=6.13D-05 Max=6.01D-04
 AX will form     1 AO Fock derivatives at one time.
 LinEq1:  Iter=  1 NonCon=     1 RMS=3.34D-05 Max=2.71D-04
 LinEq1:  Iter=  2 NonCon=     1 RMS=2.77D-06 Max=3.36D-05
 LinEq1:  Iter=  3 NonCon=     1 RMS=1.82D-07 Max=1.32D-06
 LinEq1:  Iter=  4 NonCon=     1 RMS=4.11D-08 Max=3.29D-07
 LinEq1:  Iter=  5 NonCon=     1 RMS=2.54D-08 Max=2.54D-07
 LinEq1:  Iter=  6 NonCon=     0 RMS=2.57D-09 Max=2.12D-08
 Linear equations converged to 4.982D-09 4.982D-08 after     6 iterations.
 LinEq1:  Iter=  0 NonCon=     1 RMS=2.40D-08 Max=3.63D-07
 LinEq1:  Iter=  1 NonCon=     1 RMS=8.06D-09 Max=7.27D-08
 LinEq1:  Iter=  2 NonCon=     1 RMS=3.68D-09 Max=3.53D-08
 LinEq1:  Iter=  3 NonCon=     1 RMS=1.78D-09 Max=2.03D-08
 LinEq1:  Iter=  4 NonCon=     1 RMS=9.85D-10 Max=7.44D-09
 LinEq1:  Iter=  5 NonCon=     1 RMS=2.54D-10 Max=2.36D-09
 LinEq1:  Iter=  6 NonCon=     1 RMS=4.84D-11 Max=3.88D-10
 LinEq1:  Iter=  7 NonCon=     0 RMS=9.03D-12 Max=7.61D-11
 Linear equations converged to 9.619D-12 9.619D-11 after     7 iterations.
 SCF Done:  E(RM06L) =  -230.212777720     a.u. after   10 cycles
            Convg  =    0.5317D-10                    44 Fock formations.
              S**2 =  0.0000                  -V/T =  2.0067

 **********************************************************************

            Population analysis using the SCF density.

 **********************************************************************

 Orbital symmetries:
       Occupied  (B) (A) (A) (B) (A) (B) (A) (B) (A) (B) (B) (A)
                 (A) (B) (A) (B) (A)
       Virtual   (A) (B) (A) (B) (B) (A) (A) (B) (B) (A) (B) (A)
                 (B) (B) (A) (A) (B) (B) (A) (A) (B) (A) (B) (A)
                 (B) (A) (A) (B) (B) (B) (A) (A) (B) (A) (A) (B)
                 (B) (A) (A) (B) (A) (B) (A) (B) (A) (B) (B) (B)
                 (A) (B) (A) (A) (B) (B) (A) (B) (A) (A) (B) (B)
                 (A) (A) (B) (A) (B) (A) (B) (A) (B) (A) (B) (A)
                 (B)
 The electronic state is 1-A.
 Alpha  occ. eigenvalues --  -18.97159 -18.97159 -10.10078 -10.10064  -1.00002
 Alpha  occ. eigenvalues --   -0.98253  -0.70368  -0.56777  -0.49403  -0.46712
 Alpha  occ. eigenvalues --   -0.40923  -0.38228  -0.36673  -0.30344  -0.28021
 Alpha  occ. eigenvalues --   -0.22232  -0.21962
 Alpha virt. eigenvalues --    0.07536   0.10732   0.12357   0.14857   0.16712
 Alpha virt. eigenvalues --    0.18949   0.19953   0.22250   0.23820   0.54020
 Alpha virt. eigenvalues --    0.55792   0.56620   0.59504   0.66893   0.68024
 Alpha virt. eigenvalues --    0.75223   0.80457   0.81760   0.81862   0.84987
 Alpha virt. eigenvalues --    0.88863   0.91697   0.97592   0.99320   1.00181
 Alpha virt. eigenvalues --    1.01969   1.09740   1.20072   1.29811   1.31762
 Alpha virt. eigenvalues --    1.38859   1.51294   1.55801   1.58361   1.59853
 Alpha virt. eigenvalues --    1.64258   1.76888   1.83665   1.92936   1.93264
 Alpha virt. eigenvalues --    1.96795   1.97048   2.02232   2.05527   2.10638
 Alpha virt. eigenvalues --    2.17762   2.29441   2.37201   2.40197   2.41061
 Alpha virt. eigenvalues --    2.47934   2.62072   2.65871   2.69830   2.73149
 Alpha virt. eigenvalues --    2.75293   2.75631   2.82915   2.83078   2.96137
 Alpha virt. eigenvalues --    2.96974   2.99666   3.11304   3.32952   3.40755
 Alpha virt. eigenvalues --    3.49479   3.54898   3.56522   3.57886   3.95616
 Alpha virt. eigenvalues --    4.09815   4.42562   4.69891
          Condensed to atoms (all electrons):
              1          2          3          4          5          6
     1  C    4.772782   0.353303  -0.022879   0.007066   0.235227  -0.056856
     2  C    0.353303   4.772782   0.007066  -0.022879  -0.056856   0.235227
     3  H   -0.022879   0.007066   0.400679   0.000019   0.294834  -0.000092
     4  H    0.007066  -0.022879   0.000019   0.400679  -0.000092   0.294834
     5  O    0.235227  -0.056856   0.294834  -0.000092   8.162170   0.005428
     6  O   -0.056856   0.235227  -0.000092   0.294834   0.005428   8.162170
     7  H    0.378805  -0.038812  -0.006145  -0.000243  -0.044224  -0.000069
     8  H    0.376103  -0.044815  -0.004765  -0.000219  -0.039685   0.003313
     9  H   -0.038812   0.378805  -0.000243  -0.006145  -0.000069  -0.044224
    10  H   -0.044815   0.376103  -0.000219  -0.004765   0.003313  -0.039685
              7          8          9         10
     1  C    0.378805   0.376103  -0.038812  -0.044815
     2  C   -0.038812  -0.044815   0.378805   0.376103
     3  H   -0.006145  -0.004765  -0.000243  -0.000219
     4  H   -0.000243  -0.000219  -0.006145  -0.004765
     5  O   -0.044224  -0.039685  -0.000069   0.003313
     6  O   -0.000069   0.003313  -0.044224  -0.039685
     7  H    0.671353  -0.059050   0.007667  -0.007678
     8  H   -0.059050   0.683665  -0.007678   0.003299
     9  H    0.007667  -0.007678   0.671353  -0.059050
    10  H   -0.007678   0.003299  -0.059050   0.683665
 Mulliken atomic charges:
              1
     1  C    0.040074
     2  C    0.040074
     3  H    0.331745
     4  H    0.331745
     5  O   -0.560048
     6  O   -0.560048
     7  H    0.098397
     8  H    0.089831
     9  H    0.098397
    10  H    0.089831
 Sum of Mulliken atomic charges =   0.00000
 Mulliken charges with hydrogens summed into heavy atoms:
              1
     1  C    0.228302
     2  C    0.228302
     5  O   -0.228302
     6  O   -0.228302
 Sum of Mulliken charges with hydrogens summed into heavy atoms =   0.00000
 Electronic spatial extent (au):  <R**2>=            296.8770
 Charge=              0.0000 electrons
 Dipole moment (field-independent basis, Debye):
    X=              0.0000    Y=              0.0000    Z=              1.8230  Tot=              1.8230
 Quadrupole moment (field-independent basis, Debye-Ang):
   XX=            -25.3150   YY=            -15.3711   ZZ=            -25.9528
   XY=             -2.7035   XZ=              0.0000   YZ=              0.0000
 Traceless Quadrupole moment (field-independent basis, Debye-Ang):
   XX=             -3.1021   YY=              6.8419   ZZ=             -3.7398
   XY=             -2.7035   XZ=              0.0000   YZ=              0.0000
 Octapole moment (field-independent basis, Debye-Ang**2):
  XXX=              0.0000  YYY=              0.0000  ZZZ=             -4.3288  XYY=              0.0000
  XXY=              0.0000  XXZ=             -1.1735  XZZ=              0.0000  YZZ=              0.0000
  YYZ=             -7.4291  XYZ=              1.8843
 Hexadecapole moment (field-independent basis, Debye-Ang**3):
 XXXX=            -41.7311 YYYY=           -135.8991 ZZZZ=            -94.5114 XXXY=             -1.6151
 XXXZ=              0.0000 YYYX=             -8.4114 YYYZ=              0.0000 ZZZX=              0.0000
 ZZZY=              0.0000 XXYY=            -44.0737 XXZZ=            -23.1296 YYZZ=            -46.9130
 XXYZ=              0.0000 YYXZ=              0.0000 ZZXY=             -0.1117
 N-N= 1.340786498877D+02 E-N=-8.084491637588D+02  KE= 2.286717359635D+02
 Symmetry A    KE= 1.154370934603D+02
 Symmetry B    KE= 1.132346425033D+02
 1\1\GINC-NODE7\SP\RM06L\6-31G(d,p)\C2H6O2\WUCH\03-Sep-2010\0\\#M06L/6-
 31G** SP SCF=(qc,maxcycle=800) Guess=Indo MaxDisk=64GB\\12-ethanediol 
 Rotatable Bond SP Calculation on node7.bme.utexas.edu\\0,1\C,0,-0.1949
 4,0.732875,0.581177\C,0,0.19494,-0.732875,0.581177\H,0,-0.103191,2.220
 285,-0.642746\H,0,0.103191,-2.220285,-0.642746\O,0,0.19494,1.322443,-0
 .623533\O,0,-0.19494,-1.322443,-0.623533\H,0,-1.273624,0.81089,0.70474
 8\H,0,0.273566,1.213155,1.4392\H,0,1.273624,-0.81089,0.704748\H,0,-0.2
 73566,-1.213155,1.4392\\Version=EM64L-G09RevA.02\State=1-A\HF=-230.212
 7777\RMSD=0.000e+00\Dipole=0.,0.,0.7172319\Quadrupole=-2.3063142,5.086
 7596,-2.7804455,-2.0099933,0.,0.\PG=C02 [X(C2H6O2)]\\@


 THE WISE MAN HAS THE POWER TO REASON AWAY
 WHAT A FOOL BELIEVES.
                     - DOOBIE BROTHERS
 Job cpu time:  0 days  0 hours  5 minutes 37.9 seconds.
 File lengths (MBytes):  RWF=      5 Int=      0 D2E=      0 Chk=      1 Scr=      1
 Normal termination of Gaussian 09 at Fri Sep  3 18:48:43 2010.
