 Entering Gaussian System, Link 0=/opt/g09/gaussian/g09/bin/g09
 Input=12-ethanediol-m06lsp-5-1-2-6-343.com
 Output=12-ethanediol-m06lsp-5-1-2-6-343.log
 Initial command:
 /opt/g09/gaussian/g09/bin/l1.exe /scratch/Gau-12-ethanediol/Gau-29037.inp -scrdir=/scratch/Gau-12-ethanediol/
 Entering Link 1 = /opt/g09/gaussian/g09/bin/l1.exe PID=     29038.
  
 Copyright (c) 1988,1990,1992,1993,1995,1998,2003,2009, Gaussian, Inc.
                  All Rights Reserved.
  
 This is part of the Gaussian(R) 09 program.  It is based on
 the Gaussian(R) 03 system (copyright 2003, Gaussian, Inc.),
 the Gaussian(R) 98 system (copyright 1998, Gaussian, Inc.),
 the Gaussian(R) 94 system (copyright 1995, Gaussian, Inc.),
 the Gaussian 92(TM) system (copyright 1992, Gaussian, Inc.),
 the Gaussian 90(TM) system (copyright 1990, Gaussian, Inc.),
 the Gaussian 88(TM) system (copyright 1988, Gaussian, Inc.),
 the Gaussian 86(TM) system (copyright 1986, Carnegie Mellon
 University), and the Gaussian 82(TM) system (copyright 1983,
 Carnegie Mellon University). Gaussian is a federally registered
 trademark of Gaussian, Inc.
  
 This software contains proprietary and confidential information,
 including trade secrets, belonging to Gaussian, Inc.
  
 This software is provided under written license and may be
 used, copied, transmitted, or stored only in accord with that
 written license.
  
 The following legend is applicable only to US Government
 contracts under FAR:
  
                    RESTRICTED RIGHTS LEGEND
  
 Use, reproduction and disclosure by the US Government is
 subject to restrictions as set forth in subparagraphs (a)
 and (c) of the Commercial Computer Software - Restricted
 Rights clause in FAR 52.227-19.
  
 Gaussian, Inc.
 340 Quinnipiac St., Bldg. 40, Wallingford CT 06492
  
  
 ---------------------------------------------------------------
 Warning -- This program may not be used in any manner that
 competes with the business of Gaussian, Inc. or will provide
 assistance to any competitor of Gaussian, Inc.  The licensee
 of this program is prohibited from giving any competitor of
 Gaussian, Inc. access to this program.  By using this program,
 the user acknowledges that Gaussian, Inc. is engaged in the
 business of creating and licensing software in the field of
 computational chemistry and represents and warrants to the
 licensee that it is not a competitor of Gaussian, Inc. and that
 it will not use this program in any manner prohibited above.
 ---------------------------------------------------------------
  

 Cite this work as:
 Gaussian 09, Revision A.02,
 M. J. Frisch, G. W. Trucks, H. B. Schlegel, G. E. Scuseria, 
 M. A. Robb, J. R. Cheeseman, G. Scalmani, V. Barone, B. Mennucci, 
 G. A. Petersson, H. Nakatsuji, M. Caricato, X. Li, H. P. Hratchian, 
 A. F. Izmaylov, J. Bloino, G. Zheng, J. L. Sonnenberg, M. Hada, 
 M. Ehara, K. Toyota, R. Fukuda, J. Hasegawa, M. Ishida, T. Nakajima, 
 Y. Honda, O. Kitao, H. Nakai, T. Vreven, J. A. Montgomery, Jr., 
 J. E. Peralta, F. Ogliaro, M. Bearpark, J. J. Heyd, E. Brothers, 
 K. N. Kudin, V. N. Staroverov, R. Kobayashi, J. Normand, 
 K. Raghavachari, A. Rendell, J. C. Burant, S. S. Iyengar, J. Tomasi, 
 M. Cossi, N. Rega, J. M. Millam, M. Klene, J. E. Knox, J. B. Cross, 
 V. Bakken, C. Adamo, J. Jaramillo, R. Gomperts, R. E. Stratmann, 
 O. Yazyev, A. J. Austin, R. Cammi, C. Pomelli, J. W. Ochterski, 
 R. L. Martin, K. Morokuma, V. G. Zakrzewski, G. A. Voth, 
 P. Salvador, J. J. Dannenberg, S. Dapprich, A. D. Daniels, 
 O. Farkas, J. B. Foresman, J. V. Ortiz, J. Cioslowski, 
 and D. J. Fox, Gaussian, Inc., Wallingford CT, 2009.
 
 ******************************************
 Gaussian 09:  EM64L-G09RevA.02 11-Jun-2009
                 3-Sep-2010 
 ******************************************
 %RWF=/scratch/Gau-12-ethanediol/,64GB
 %Chk=12-ethanediol-m06lsp-5-1-2-6-343.chk
 %Mem=778484KB
 %Nproc=1
 Will use up to    1 processors via shared memory.
 --------------------------------------------------------------
 #M06L/6-31G** SP SCF=(qc,maxcycle=800) Guess=Indo MaxDisk=64GB
 --------------------------------------------------------------
 1/38=1/1;
 2/12=2,17=6,18=5,40=1/2;
 3/5=1,6=6,7=101,11=2,16=1,25=1,30=1,74=-53/1,2,3;
 4/5=4,11=3/1;
 5/5=2,7=800,8=3,38=5/8;
 6/7=2,8=2,9=2,10=2,28=1/1;
 99/5=1,9=1/99;
 -------------------------------------------------------------------
 12-ethanediol Rotatable Bond SP Calculation on node7.bme.utexas.edu
 -------------------------------------------------------------------
 Symbolic Z-matrix:
 Charge =  0 Multiplicity = 1
 C                    -0.07432   0.76584   0.61889 
 C                     0.07432  -0.76584   0.61889 
 H                    -0.01046   2.21728  -0.63898 
 H                     0.01046  -2.21728  -0.63898 
 O                     0.07432   1.27526  -0.6725 
 O                    -0.07432  -1.27526  -0.6725 
 H                    -1.05765   1.02835   1.00485 
 H                     0.66085   1.18832   1.30078 
 H                     1.05765  -1.02835   1.00485 
 H                    -0.66085  -1.18832   1.30078 
 
                          Input orientation:                          
 ---------------------------------------------------------------------
 Center     Atomic      Atomic             Coordinates (Angstroms)
 Number     Number       Type             X           Y           Z
 ---------------------------------------------------------------------
      1          6           0       -0.074320    0.765840    0.618886
      2          6           0        0.074320   -0.765840    0.618886
      3          1           0       -0.010458    2.217283   -0.638982
      4          1           0        0.010458   -2.217283   -0.638982
      5          8           0        0.074320    1.275260   -0.672496
      6          8           0       -0.074320   -1.275260   -0.672496
      7          1           0       -1.057653    1.028348    1.004854
      8          1           0        0.660847    1.188323    1.300778
      9          1           0        1.057653   -1.028348    1.004854
     10          1           0       -0.660847   -1.188323    1.300778
 ---------------------------------------------------------------------
                    Distance matrix (angstroms):
                    1          2          3          4          5
     1  C    0.000000
     2  C    1.538875   0.000000
     3  H    1.921717   3.238586   0.000000
     4  H    3.238586   1.921717   4.434615   0.000000
     5  O    1.396163   2.415317   0.946424   3.493288   0.000000
     6  O    2.415317   1.396163   3.493288   0.946424   2.554848
     7  H    1.088497   2.156257   2.283064   3.791725   2.038586
     8  H    1.088090   2.151219   2.296101   3.972886   2.060433
     9  H    2.156257   1.088497   3.791725   2.283064   3.014475
    10  H    2.151219   1.088090   3.972886   2.296101   3.240914
                    6          7          8          9         10
     6  O    0.000000
     7  H    3.014475   0.000000
     8  H    3.240914   1.751115   0.000000
     9  H    2.038586   2.950342   2.271268   0.000000
    10  H    2.060433   2.271268   2.719434   1.751115   0.000000
 Stoichiometry    C2H6O2
 Framework group  C2[X(C2H6O2)]
 Deg. of freedom    13
 Full point group                 C2      NOp   2
 Largest Abelian subgroup         C2      NOp   2
 Largest concise Abelian subgroup C2      NOp   2
                         Standard orientation:                         
 ---------------------------------------------------------------------
 Center     Atomic      Atomic             Coordinates (Angstroms)
 Number     Number       Type             X           Y           Z
 ---------------------------------------------------------------------
      1          6           0       -0.074320    0.765840    0.618886
      2          6           0        0.074320   -0.765840    0.618886
      3          1           0       -0.010458    2.217283   -0.638982
      4          1           0        0.010458   -2.217283   -0.638982
      5          8           0        0.074320    1.275260   -0.672496
      6          8           0       -0.074320   -1.275260   -0.672496
      7          1           0       -1.057653    1.028348    1.004854
      8          1           0        0.660847    1.188323    1.300778
      9          1           0        1.057653   -1.028348    1.004854
     10          1           0       -0.660847   -1.188323    1.300778
 ---------------------------------------------------------------------
 Rotational constants (GHZ):     15.2293821      5.9855656      4.5630484
 Standard basis: 6-31G(d,p) (6D, 7F)
 There are    45 symmetry adapted basis functions of A   symmetry.
 There are    45 symmetry adapted basis functions of B   symmetry.
 Integral buffers will be    131072 words long.
 Raffenetti 2 integral format.
 Two-electron integral symmetry is turned on.
    90 basis functions,   154 primitive gaussians,    90 cartesian basis functions
    17 alpha electrons       17 beta electrons
       nuclear repulsion energy       133.9737526666 Hartrees.
 NAtoms=   10 NActive=   10 NUniq=    5 SFac= 3.00D+00 NAtFMM=   80 NAOKFM=F Big=F
 One-electron integrals computed using PRISM.
 NBasis=    90 RedAO= T  NBF=    45    45
 NBsUse=    90 1.00D-06 NBFU=    45    45
 Projected INDO guess.
 Initial guess orbital symmetries:
       Occupied  (B) (A) (A) (B) (A) (B) (A) (B) (A) (B) (B) (A)
                 (A) (B) (B) (A) (A)
       Virtual   (B) (A) (B) (A) (B) (A) (A) (B) (B) (A) (A) (A)
                 (A) (A) (A) (A) (A) (A) (A) (A) (A) (A) (A) (A)
                 (A) (A) (A) (A) (A) (A) (A) (A) (A) (A) (A) (A)
                 (A) (A) (A) (A) (A) (B) (B) (B) (B) (B) (B) (B)
                 (B) (B) (B) (B) (B) (B) (B) (B) (B) (B) (B) (B)
                 (B) (B) (B) (B) (B) (B) (B) (B) (B) (B) (B) (B)
                 (B)
 The electronic state of the initial guess is 1-A.
 Keep J ints in memory in canonical form, NReq=9445283.
 Gradient too large for Newton-Raphson -- use scaled steepest descent instead.
 Gradient too large for Newton-Raphson -- use scaled steepest descent instead.
 Gradient too large for Newton-Raphson -- use scaled steepest descent instead.
 Gradient too large for Newton-Raphson -- use scaled steepest descent instead.
 Gradient too large for Newton-Raphson -- use scaled steepest descent instead.
 Gradient too large for Newton-Raphson -- use scaled steepest descent instead.
 Gradient too large for Newton-Raphson -- use scaled steepest descent instead.
 LinEq1:  Iter=  0 NonCon=     1 RMS=6.30D-05 Max=7.09D-04
 AX will form     1 AO Fock derivatives at one time.
 LinEq1:  Iter=  1 NonCon=     1 RMS=3.47D-05 Max=3.51D-04
 LinEq1:  Iter=  2 NonCon=     1 RMS=2.86D-06 Max=3.39D-05
 LinEq1:  Iter=  3 NonCon=     1 RMS=1.83D-07 Max=1.74D-06
 LinEq1:  Iter=  4 NonCon=     1 RMS=3.26D-08 Max=2.44D-07
 LinEq1:  Iter=  5 NonCon=     1 RMS=2.38D-08 Max=2.50D-07
 LinEq1:  Iter=  6 NonCon=     0 RMS=2.57D-09 Max=2.42D-08
 Linear equations converged to 4.982D-09 4.982D-08 after     6 iterations.
 LinEq1:  Iter=  0 NonCon=     1 RMS=2.68D-08 Max=4.69D-07
 LinEq1:  Iter=  1 NonCon=     1 RMS=8.77D-09 Max=9.03D-08
 LinEq1:  Iter=  2 NonCon=     1 RMS=3.98D-09 Max=3.62D-08
 LinEq1:  Iter=  3 NonCon=     1 RMS=1.93D-09 Max=2.47D-08
 LinEq1:  Iter=  4 NonCon=     1 RMS=1.06D-09 Max=9.19D-09
 LinEq1:  Iter=  5 NonCon=     1 RMS=2.16D-10 Max=2.43D-09
 LinEq1:  Iter=  6 NonCon=     1 RMS=3.60D-11 Max=3.21D-10
 LinEq1:  Iter=  7 NonCon=     0 RMS=8.12D-12 Max=7.24D-11
 Linear equations converged to 1.049D-11 1.049D-10 after     7 iterations.
 LinEq1:  Iter=  0 NonCon=     1 RMS=1.61D-08 Max=2.81D-07
 LinEq1:  Iter=  1 NonCon=     1 RMS=5.26D-09 Max=5.42D-08
 LinEq1:  Iter=  2 NonCon=     1 RMS=2.39D-09 Max=2.17D-08
 LinEq1:  Iter=  3 NonCon=     1 RMS=1.16D-09 Max=1.48D-08
 LinEq1:  Iter=  4 NonCon=     1 RMS=6.38D-10 Max=5.51D-09
 LinEq1:  Iter=  5 NonCon=     1 RMS=1.29D-10 Max=1.46D-09
 LinEq1:  Iter=  6 NonCon=     1 RMS=2.16D-11 Max=1.92D-10
 LinEq1:  Iter=  7 NonCon=     0 RMS=4.92D-12 Max=4.32D-11
 Linear equations converged to 6.297D-12 6.297D-11 after     7 iterations.
 SCF Done:  E(RM06L) =  -230.204583078     a.u. after   11 cycles
            Convg  =    0.2929D-10                    55 Fock formations.
              S**2 =  0.0000                  -V/T =  2.0067

 **********************************************************************

            Population analysis using the SCF density.

 **********************************************************************

 Orbital symmetries:
       Occupied  (B) (A) (A) (B) (A) (B) (A) (B) (A) (B) (B) (A)
                 (A) (B) (A) (B) (A)
       Virtual   (A) (B) (A) (B) (B) (A) (A) (B) (B) (A) (A) (B)
                 (B) (B) (A) (A) (B) (B) (A) (A) (A) (B) (B) (A)
                 (B) (A) (A) (B) (B) (A) (B) (A) (B) (A) (B) (A)
                 (A) (B) (A) (B) (A) (A) (B) (B) (A) (B) (B) (B)
                 (A) (B) (A) (A) (B) (B) (A) (A) (B) (A) (B) (A)
                 (B) (A) (B) (A) (B) (B) (A) (A) (B) (A) (B) (A)
                 (B)
 The electronic state is 1-A.
 Alpha  occ. eigenvalues --  -18.97084 -18.97084 -10.10161 -10.10150  -0.99972
 Alpha  occ. eigenvalues --   -0.98153  -0.69951  -0.56843  -0.49745  -0.44669
 Alpha  occ. eigenvalues --   -0.42945  -0.38189  -0.35907  -0.29570  -0.28399
 Alpha  occ. eigenvalues --   -0.22939  -0.20730
 Alpha virt. eigenvalues --    0.06519   0.11638   0.12049   0.12755   0.17298
 Alpha virt. eigenvalues --    0.17710   0.21811   0.22112   0.27445   0.54413
 Alpha virt. eigenvalues --    0.57117   0.57259   0.58470   0.65102   0.72394
 Alpha virt. eigenvalues --    0.76216   0.80028   0.81068   0.81902   0.83749
 Alpha virt. eigenvalues --    0.84947   0.89167   0.94152   0.98948   0.99675
 Alpha virt. eigenvalues --    1.03440   1.08029   1.23930   1.29374   1.34970
 Alpha virt. eigenvalues --    1.42086   1.49645   1.55765   1.59174   1.61607
 Alpha virt. eigenvalues --    1.62261   1.78713   1.81545   1.93339   1.94922
 Alpha virt. eigenvalues --    1.95097   1.96691   1.98822   2.02693   2.14790
 Alpha virt. eigenvalues --    2.25159   2.27690   2.37098   2.39251   2.43198
 Alpha virt. eigenvalues --    2.50745   2.60369   2.65783   2.70696   2.71847
 Alpha virt. eigenvalues --    2.75034   2.75648   2.79584   2.84489   2.96036
 Alpha virt. eigenvalues --    2.96592   2.97848   3.14019   3.30844   3.43092
 Alpha virt. eigenvalues --    3.47430   3.55356   3.55649   3.56690   3.96060
 Alpha virt. eigenvalues --    4.22318   4.39649   4.70485
          Condensed to atoms (all electrons):
              1          2          3          4          5          6
     1  C    4.769401   0.337879  -0.023034   0.007123   0.239511  -0.048643
     2  C    0.337879   4.769401   0.007123  -0.023034  -0.048643   0.239511
     3  H   -0.023034   0.007123   0.402991   0.000009   0.293724  -0.000031
     4  H    0.007123  -0.023034   0.000009   0.402991  -0.000031   0.293724
     5  O    0.239511  -0.048643   0.293724  -0.000031   8.149980   0.001059
     6  O   -0.048643   0.239511  -0.000031   0.293724   0.001059   8.149980
     7  H    0.386326  -0.045637  -0.005110  -0.000193  -0.044472   0.001152
     8  H    0.382618  -0.045405  -0.006086  -0.000177  -0.039276   0.002455
     9  H   -0.045637   0.386326  -0.000193  -0.005110   0.001152  -0.044472
    10  H   -0.045405   0.382618  -0.000177  -0.006086   0.002455  -0.039276
              7          8          9         10
     1  C    0.386326   0.382618  -0.045637  -0.045405
     2  C   -0.045637  -0.045405   0.386326   0.382618
     3  H   -0.005110  -0.006086  -0.000193  -0.000177
     4  H   -0.000193  -0.000177  -0.005110  -0.006086
     5  O   -0.044472  -0.039276   0.001152   0.002455
     6  O    0.001152   0.002455  -0.044472  -0.039276
     7  H    0.684958  -0.065028   0.006917  -0.011711
     8  H   -0.065028   0.685303  -0.011711   0.005290
     9  H    0.006917  -0.011711   0.684958  -0.065028
    10  H   -0.011711   0.005290  -0.065028   0.685303
 Mulliken atomic charges:
              1
     1  C    0.039861
     2  C    0.039861
     3  H    0.330783
     4  H    0.330783
     5  O   -0.555459
     6  O   -0.555459
     7  H    0.092799
     8  H    0.092016
     9  H    0.092799
    10  H    0.092016
 Sum of Mulliken atomic charges =   0.00000
 Mulliken charges with hydrogens summed into heavy atoms:
              1
     1  C    0.224676
     2  C    0.224676
     5  O   -0.224676
     6  O   -0.224676
 Sum of Mulliken charges with hydrogens summed into heavy atoms =   0.00000
 Electronic spatial extent (au):  <R**2>=            296.2098
 Charge=              0.0000 electrons
 Dipole moment (field-independent basis, Debye):
    X=              0.0000    Y=              0.0000    Z=              2.0849  Tot=              2.0849
 Quadrupole moment (field-independent basis, Debye-Ang):
   XX=            -25.2357   YY=            -14.6958   ZZ=            -26.3461
   XY=             -0.6859   XZ=              0.0000   YZ=              0.0000
 Traceless Quadrupole moment (field-independent basis, Debye-Ang):
   XX=             -3.1432   YY=              7.3967   ZZ=             -4.2535
   XY=             -0.6859   XZ=              0.0000   YZ=              0.0000
 Octapole moment (field-independent basis, Debye-Ang**2):
  XXX=              0.0000  YYY=              0.0000  ZZZ=             -4.5877  XYY=              0.0000
  XXY=              0.0000  XXZ=             -0.9584  XZZ=              0.0000  YZZ=              0.0000
  YYZ=             -7.5751  XYZ=              0.6834
 Hexadecapole moment (field-independent basis, Debye-Ang**3):
 XXXX=            -36.6412 YYYY=           -131.8031 ZZZZ=           -103.0418 XXXY=             -0.4070
 XXXZ=              0.0000 YYYX=             -1.3305 YYYZ=              0.0000 ZZZX=              0.0000
 ZZZY=              0.0000 XXYY=            -42.2510 XXZZ=            -23.1904 YYZZ=            -49.0763
 XXYZ=              0.0000 YYXZ=              0.0000 ZZXY=              0.3393
 N-N= 1.339737526666D+02 E-N=-8.082528160854D+02  KE= 2.286629391020D+02
 Symmetry A    KE= 1.154280720257D+02
 Symmetry B    KE= 1.132348670764D+02
 1\1\GINC-NODE7\SP\RM06L\6-31G(d,p)\C2H6O2\WUCH\03-Sep-2010\0\\#M06L/6-
 31G** SP SCF=(qc,maxcycle=800) Guess=Indo MaxDisk=64GB\\12-ethanediol 
 Rotatable Bond SP Calculation on node7.bme.utexas.edu\\0,1\C,0,-0.0743
 2,0.76584,0.618886\C,0,0.07432,-0.76584,0.618886\H,0,-0.010458,2.21728
 3,-0.638982\H,0,0.010458,-2.217283,-0.638982\O,0,0.07432,1.27526,-0.67
 2496\O,0,-0.07432,-1.27526,-0.672496\H,0,-1.057653,1.028348,1.004854\H
 ,0,0.660847,1.188323,1.300778\H,0,1.057653,-1.028348,1.004854\H,0,-0.6
 60847,-1.188323,1.300778\\Version=EM64L-G09RevA.02\State=1-A\HF=-230.2
 045831\RMSD=0.000e+00\Dipole=0.,0.,0.820257\Quadrupole=-2.3368954,5.49
 92974,-3.162402,-0.5099713,0.,0.\PG=C02 [X(C2H6O2)]\\@


      THE ONE-EYED VIEW OF OUR UNIVERSE SAYS YOU MUST NOT LOOK
      FAR AFIELD FOR PROBLEMS.  SUCH PROBLEMS MAY NEVER ARRIVE. 
      INSTEAD, TEND TO THE WOLF WITHIN YOUR FENCES.
      THE PACKS RANGING OUTSIDE MAY NOT EVEN EXIST.

                              -- THE AZHAR BOOK SHAMRA I:4
                                 CHILDREN OF DUNE, BY FRANK HERBERT
 Job cpu time:  0 days  0 hours  7 minutes  3.0 seconds.
 File lengths (MBytes):  RWF=      5 Int=      0 D2E=      0 Chk=      1 Scr=      1
 Normal termination of Gaussian 09 at Fri Sep  3 18:42:20 2010.
