 Entering Gaussian System, Link 0=/opt/g09/gaussian/g09/bin/g09
 Input=12-ethanediol-m06lsp-5-1-2-6-193.com
 Output=12-ethanediol-m06lsp-5-1-2-6-193.log
 Initial command:
 /opt/g09/gaussian/g09/bin/l1.exe /scratch/Gau-12-ethanediol/Gau-28536.inp -scrdir=/scratch/Gau-12-ethanediol/
 Entering Link 1 = /opt/g09/gaussian/g09/bin/l1.exe PID=     28537.
  
 Copyright (c) 1988,1990,1992,1993,1995,1998,2003,2009, Gaussian, Inc.
                  All Rights Reserved.
  
 This is part of the Gaussian(R) 09 program.  It is based on
 the Gaussian(R) 03 system (copyright 2003, Gaussian, Inc.),
 the Gaussian(R) 98 system (copyright 1998, Gaussian, Inc.),
 the Gaussian(R) 94 system (copyright 1995, Gaussian, Inc.),
 the Gaussian 92(TM) system (copyright 1992, Gaussian, Inc.),
 the Gaussian 90(TM) system (copyright 1990, Gaussian, Inc.),
 the Gaussian 88(TM) system (copyright 1988, Gaussian, Inc.),
 the Gaussian 86(TM) system (copyright 1986, Carnegie Mellon
 University), and the Gaussian 82(TM) system (copyright 1983,
 Carnegie Mellon University). Gaussian is a federally registered
 trademark of Gaussian, Inc.
  
 This software contains proprietary and confidential information,
 including trade secrets, belonging to Gaussian, Inc.
  
 This software is provided under written license and may be
 used, copied, transmitted, or stored only in accord with that
 written license.
  
 The following legend is applicable only to US Government
 contracts under FAR:
  
                    RESTRICTED RIGHTS LEGEND
  
 Use, reproduction and disclosure by the US Government is
 subject to restrictions as set forth in subparagraphs (a)
 and (c) of the Commercial Computer Software - Restricted
 Rights clause in FAR 52.227-19.
  
 Gaussian, Inc.
 340 Quinnipiac St., Bldg. 40, Wallingford CT 06492
  
  
 ---------------------------------------------------------------
 Warning -- This program may not be used in any manner that
 competes with the business of Gaussian, Inc. or will provide
 assistance to any competitor of Gaussian, Inc.  The licensee
 of this program is prohibited from giving any competitor of
 Gaussian, Inc. access to this program.  By using this program,
 the user acknowledges that Gaussian, Inc. is engaged in the
 business of creating and licensing software in the field of
 computational chemistry and represents and warrants to the
 licensee that it is not a competitor of Gaussian, Inc. and that
 it will not use this program in any manner prohibited above.
 ---------------------------------------------------------------
  

 Cite this work as:
 Gaussian 09, Revision A.02,
 M. J. Frisch, G. W. Trucks, H. B. Schlegel, G. E. Scuseria, 
 M. A. Robb, J. R. Cheeseman, G. Scalmani, V. Barone, B. Mennucci, 
 G. A. Petersson, H. Nakatsuji, M. Caricato, X. Li, H. P. Hratchian, 
 A. F. Izmaylov, J. Bloino, G. Zheng, J. L. Sonnenberg, M. Hada, 
 M. Ehara, K. Toyota, R. Fukuda, J. Hasegawa, M. Ishida, T. Nakajima, 
 Y. Honda, O. Kitao, H. Nakai, T. Vreven, J. A. Montgomery, Jr., 
 J. E. Peralta, F. Ogliaro, M. Bearpark, J. J. Heyd, E. Brothers, 
 K. N. Kudin, V. N. Staroverov, R. Kobayashi, J. Normand, 
 K. Raghavachari, A. Rendell, J. C. Burant, S. S. Iyengar, J. Tomasi, 
 M. Cossi, N. Rega, J. M. Millam, M. Klene, J. E. Knox, J. B. Cross, 
 V. Bakken, C. Adamo, J. Jaramillo, R. Gomperts, R. E. Stratmann, 
 O. Yazyev, A. J. Austin, R. Cammi, C. Pomelli, J. W. Ochterski, 
 R. L. Martin, K. Morokuma, V. G. Zakrzewski, G. A. Voth, 
 P. Salvador, J. J. Dannenberg, S. Dapprich, A. D. Daniels, 
 O. Farkas, J. B. Foresman, J. V. Ortiz, J. Cioslowski, 
 and D. J. Fox, Gaussian, Inc., Wallingford CT, 2009.
 
 ******************************************
 Gaussian 09:  EM64L-G09RevA.02 11-Jun-2009
                 3-Sep-2010 
 ******************************************
 %RWF=/scratch/Gau-12-ethanediol/,64GB
 %Chk=12-ethanediol-m06lsp-5-1-2-6-193.chk
 %Mem=778484KB
 %Nproc=1
 Will use up to    1 processors via shared memory.
 --------------------------------------------------------------
 #M06L/6-31G** SP SCF=(qc,maxcycle=800) Guess=Indo MaxDisk=64GB
 --------------------------------------------------------------
 1/38=1/1;
 2/12=2,17=6,18=5,40=1/2;
 3/5=1,6=6,7=101,11=2,16=1,25=1,30=1,74=-53/1,2,3;
 4/5=4,11=3/1;
 5/5=2,7=800,8=3,38=5/8;
 6/7=2,8=2,9=2,10=2,28=1/1;
 99/5=1,9=1/99;
 -------------------------------------------------------------------
 12-ethanediol Rotatable Bond SP Calculation on node7.bme.utexas.edu
 -------------------------------------------------------------------
 Symbolic Z-matrix:
 Charge =  0 Multiplicity = 1
 C                    -0.42968   0.62358   0.0698 
 C                     0.42968  -0.62358   0.0698 
 H                    -0.06869   2.52559  -0.03336 
 H                     0.06869  -2.52559  -0.03336 
 O                     0.42968   1.72252  -0.07763 
 O                    -0.42968  -1.72252  -0.07763 
 H                    -1.13167   0.55876  -0.75692 
 H                    -1.00118   0.68236   0.99245 
 H                     1.13167  -0.55876  -0.75692 
 H                     1.00118  -0.68236   0.99245 
 
                          Input orientation:                          
 ---------------------------------------------------------------------
 Center     Atomic      Atomic             Coordinates (Angstroms)
 Number     Number       Type             X           Y           Z
 ---------------------------------------------------------------------
      1          6           0       -0.429680    0.623579    0.069804
      2          6           0        0.429680   -0.623579    0.069804
      3          1           0       -0.068690    2.525587   -0.033356
      4          1           0        0.068690   -2.525587   -0.033356
      5          8           0        0.429680    1.722518   -0.077625
      6          8           0       -0.429680   -1.722518   -0.077625
      7          1           0       -1.131666    0.558761   -0.756915
      8          1           0       -1.001184    0.682361    0.992446
      9          1           0        1.131666   -0.558761   -0.756915
     10          1           0        1.001184   -0.682361    0.992446
 ---------------------------------------------------------------------
                    Distance matrix (angstroms):
                    1          2          3          4          5
     1  C    0.000000
     2  C    1.514564   0.000000
     3  H    1.938708   3.190025   0.000000
     4  H    3.190025   1.938708   5.053042   0.000000
     5  O    1.402819   2.350725   0.946178   4.263645   0.000000
     6  O    2.350725   1.402819   4.263645   0.946178   3.550602
     7  H    1.086485   2.125839   2.349864   3.387860   2.062418
     8  H    1.086895   2.145721   2.306360   3.533812   2.067450
     9  H    2.125839   1.086485   3.387860   2.349864   2.481623
    10  H    2.145721   1.086895   3.533812   2.306360   2.693531
                    6          7          8          9         10
     6  O    0.000000
     7  H    2.481623   0.000000
     8  H    2.693531   1.758569   0.000000
     9  H    2.062418   2.524188   3.024847   0.000000
    10  H    2.067450   3.024847   2.423209   1.758569   0.000000
 Stoichiometry    C2H6O2
 Framework group  C2[X(C2H6O2)]
 Deg. of freedom    13
 Full point group                 C2      NOp   2
 Largest Abelian subgroup         C2      NOp   2
 Largest concise Abelian subgroup C2      NOp   2
                         Standard orientation:                         
 ---------------------------------------------------------------------
 Center     Atomic      Atomic             Coordinates (Angstroms)
 Number     Number       Type             X           Y           Z
 ---------------------------------------------------------------------
      1          6           0       -0.429680    0.623579    0.069804
      2          6           0        0.429680   -0.623579    0.069804
      3          1           0       -0.068690    2.525587   -0.033356
      4          1           0        0.068690   -2.525587   -0.033356
      5          8           0        0.429680    1.722518   -0.077625
      6          8           0       -0.429680   -1.722518   -0.077625
      7          1           0       -1.131666    0.558761   -0.756915
      8          1           0       -1.001184    0.682361    0.992446
      9          1           0        1.131666   -0.558761   -0.756915
     10          1           0        1.001184   -0.682361    0.992446
 ---------------------------------------------------------------------
 Rotational constants (GHZ):     30.6714422      4.0742088      3.7821628
 Standard basis: 6-31G(d,p) (6D, 7F)
 There are    45 symmetry adapted basis functions of A   symmetry.
 There are    45 symmetry adapted basis functions of B   symmetry.
 Integral buffers will be    131072 words long.
 Raffenetti 2 integral format.
 Two-electron integral symmetry is turned on.
    90 basis functions,   154 primitive gaussians,    90 cartesian basis functions
    17 alpha electrons       17 beta electrons
       nuclear repulsion energy       131.5363389006 Hartrees.
 NAtoms=   10 NActive=   10 NUniq=    5 SFac= 3.00D+00 NAtFMM=   80 NAOKFM=F Big=F
 One-electron integrals computed using PRISM.
 NBasis=    90 RedAO= T  NBF=    45    45
 NBsUse=    90 1.00D-06 NBFU=    45    45
 Projected INDO guess.
 Initial guess orbital symmetries:
       Occupied  (B) (A) (A) (B) (A) (B) (A) (B) (A) (B) (A) (B)
                 (A) (B) (A) (A) (B)
       Virtual   (B) (B) (A) (A) (A) (B) (B) (B) (A) (A) (A) (A)
                 (A) (A) (A) (A) (A) (A) (A) (A) (A) (A) (A) (A)
                 (A) (A) (A) (A) (A) (A) (A) (A) (A) (A) (A) (A)
                 (A) (A) (A) (A) (A) (B) (B) (B) (B) (B) (B) (B)
                 (B) (B) (B) (B) (B) (B) (B) (B) (B) (B) (B) (B)
                 (B) (B) (B) (B) (B) (B) (B) (B) (B) (B) (B) (B)
                 (B)
 The electronic state of the initial guess is 1-A.
 Keep J ints in memory in canonical form, NReq=9445881.
 Gradient too large for Newton-Raphson -- use scaled steepest descent instead.
 Gradient too large for Newton-Raphson -- use scaled steepest descent instead.
 Gradient too large for Newton-Raphson -- use scaled steepest descent instead.
 Gradient too large for Newton-Raphson -- use scaled steepest descent instead.
 Gradient too large for Newton-Raphson -- use scaled steepest descent instead.
 Gradient too large for Newton-Raphson -- use scaled steepest descent instead.
 Gradient too large for Newton-Raphson -- use scaled steepest descent instead.
 LinEq1:  Iter=  0 NonCon=     1 RMS=5.15D-05 Max=6.26D-04
 AX will form     1 AO Fock derivatives at one time.
 LinEq1:  Iter=  1 NonCon=     1 RMS=2.58D-05 Max=2.92D-04
 LinEq1:  Iter=  2 NonCon=     1 RMS=2.10D-06 Max=2.69D-05
 LinEq1:  Iter=  3 NonCon=     1 RMS=1.43D-07 Max=1.35D-06
 LinEq1:  Iter=  4 NonCon=     1 RMS=2.86D-08 Max=3.08D-07
 LinEq1:  Iter=  5 NonCon=     1 RMS=1.52D-08 Max=1.13D-07
 LinEq1:  Iter=  6 NonCon=     0 RMS=1.77D-09 Max=1.25D-08
 Linear equations converged to 4.982D-09 4.982D-08 after     6 iterations.
 LinEq1:  Iter=  0 NonCon=     1 RMS=1.52D-08 Max=2.30D-07
 LinEq1:  Iter=  1 NonCon=     1 RMS=3.76D-09 Max=3.79D-08
 LinEq1:  Iter=  2 NonCon=     1 RMS=1.87D-09 Max=1.78D-08
 LinEq1:  Iter=  3 NonCon=     1 RMS=9.30D-10 Max=1.14D-08
 LinEq1:  Iter=  4 NonCon=     1 RMS=5.03D-10 Max=5.27D-09
 LinEq1:  Iter=  5 NonCon=     1 RMS=1.14D-10 Max=7.64D-10
 LinEq1:  Iter=  6 NonCon=     1 RMS=2.25D-11 Max=2.35D-10
 LinEq1:  Iter=  7 NonCon=     1 RMS=6.87D-12 Max=6.37D-11
 LinEq1:  Iter=  8 NonCon=     0 RMS=1.68D-12 Max=1.55D-11
 Linear equations converged to 6.106D-12 6.106D-11 after     8 iterations.
 SCF Done:  E(RM06L) =  -230.216552566     a.u. after   10 cycles
            Convg  =    0.3886D-06                    47 Fock formations.
              S**2 =  0.0000                  -V/T =  2.0067

 **********************************************************************

            Population analysis using the SCF density.

 **********************************************************************

 Orbital symmetries:
       Occupied  (A) (B) (A) (B) (A) (B) (A) (B) (B) (A) (A) (A)
                 (B) (B) (A) (B) (A)
       Virtual   (B) (A) (A) (A) (B) (B) (B) (A) (B) (A) (B) (A)
                 (A) (B) (B) (A) (B) (A) (B) (A) (B) (A) (B) (A)
                 (A) (B) (B) (A) (B) (A) (B) (A) (A) (B) (A) (B)
                 (B) (A) (A) (B) (A) (B) (B) (A) (B) (A) (A) (B)
                 (A) (B) (B) (A) (B) (A) (B) (A) (B) (A) (B) (A)
                 (B) (B) (A) (A) (B) (B) (A) (B) (A) (A) (B) (A)
                 (B)
 The electronic state is 1-A.
 Alpha  occ. eigenvalues --  -18.97800 -18.97800 -10.09831 -10.09816  -1.00042
 Alpha  occ. eigenvalues --   -0.99060  -0.70176  -0.56927  -0.49958  -0.45295
 Alpha  occ. eigenvalues --   -0.43108  -0.37878  -0.35721  -0.31335  -0.28333
 Alpha  occ. eigenvalues --   -0.22692  -0.22583
 Alpha virt. eigenvalues --    0.06985   0.10165   0.13981   0.14654   0.16124
 Alpha virt. eigenvalues --    0.18592   0.20953   0.22574   0.25200   0.52058
 Alpha virt. eigenvalues --    0.57377   0.57630   0.59718   0.65255   0.70989
 Alpha virt. eigenvalues --    0.75700   0.77084   0.81902   0.84192   0.84545
 Alpha virt. eigenvalues --    0.86998   0.91875   0.96245   0.97715   1.00868
 Alpha virt. eigenvalues --    1.01757   1.06583   1.25903   1.30233   1.32733
 Alpha virt. eigenvalues --    1.38559   1.48239   1.57080   1.57497   1.60803
 Alpha virt. eigenvalues --    1.62594   1.75300   1.85134   1.92103   1.93510
 Alpha virt. eigenvalues --    1.94347   1.96061   2.03042   2.05459   2.08990
 Alpha virt. eigenvalues --    2.19675   2.30056   2.30671   2.41751   2.43478
 Alpha virt. eigenvalues --    2.48041   2.64205   2.66974   2.69524   2.74554
 Alpha virt. eigenvalues --    2.76018   2.78041   2.78204   2.87445   2.91706
 Alpha virt. eigenvalues --    2.94179   3.06626   3.09256   3.32663   3.39065
 Alpha virt. eigenvalues --    3.44828   3.54482   3.58460   3.59412   3.93327
 Alpha virt. eigenvalues --    4.18099   4.42081   4.70232
          Condensed to atoms (all electrons):
              1          2          3          4          5          6
     1  C    4.784314   0.354577  -0.021269   0.006623   0.217142  -0.052257
     2  C    0.354577   4.784314   0.006623  -0.021269  -0.052257   0.217142
     3  H   -0.021269   0.006623   0.395312   0.000007   0.294950  -0.000107
     4  H    0.006623  -0.021269   0.000007   0.395312  -0.000107   0.294950
     5  O    0.217142  -0.052257   0.294950  -0.000107   8.189256   0.001021
     6  O   -0.052257   0.217142  -0.000107   0.294950   0.001021   8.189256
     7  H    0.384381  -0.048780  -0.004364  -0.000147  -0.038477   0.006514
     8  H    0.376785  -0.038365  -0.005427  -0.000342  -0.038141   0.004586
     9  H   -0.048780   0.384381  -0.000147  -0.004364   0.006514  -0.038477
    10  H   -0.038365   0.376785  -0.000342  -0.005427   0.004586  -0.038141
              7          8          9         10
     1  C    0.384381   0.376785  -0.048780  -0.038365
     2  C   -0.048780  -0.038365   0.384381   0.376785
     3  H   -0.004364  -0.005427  -0.000147  -0.000342
     4  H   -0.000147  -0.000342  -0.004364  -0.005427
     5  O   -0.038477  -0.038141   0.006514   0.004586
     6  O    0.006514   0.004586  -0.038477  -0.038141
     7  H    0.652288  -0.059636  -0.009218   0.007449
     8  H   -0.059636   0.662720   0.007449  -0.012510
     9  H   -0.009218   0.007449   0.652288  -0.059636
    10  H    0.007449  -0.012510  -0.059636   0.662720
 Mulliken atomic charges:
              1
     1  C    0.036849
     2  C    0.036849
     3  H    0.334766
     4  H    0.334766
     5  O   -0.584486
     6  O   -0.584486
     7  H    0.109990
     8  H    0.102881
     9  H    0.109990
    10  H    0.102881
 Sum of Mulliken atomic charges =   0.00000
 Mulliken charges with hydrogens summed into heavy atoms:
              1
     1  C    0.249720
     2  C    0.249720
     5  O   -0.249720
     6  O   -0.249720
 Sum of Mulliken charges with hydrogens summed into heavy atoms =   0.00000
 Electronic spatial extent (au):  <R**2>=            334.6720
 Charge=              0.0000 electrons
 Dipole moment (field-independent basis, Debye):
    X=              0.0000    Y=              0.0000    Z=              0.3902  Tot=              0.3902
 Quadrupole moment (field-independent basis, Debye-Ang):
   XX=            -26.0871   YY=            -17.3090   ZZ=            -25.0385
   XY=             -5.8465   XZ=              0.0000   YZ=              0.0000
 Traceless Quadrupole moment (field-independent basis, Debye-Ang):
   XX=             -3.2755   YY=              5.5025   ZZ=             -2.2270
   XY=             -5.8465   XZ=              0.0000   YZ=              0.0000
 Octapole moment (field-independent basis, Debye-Ang**2):
  XXX=              0.0000  YYY=              0.0000  ZZZ=             -0.1911  XYY=              0.0000
  XXY=              0.0000  XXZ=             -0.2553  XZZ=              0.0000  YZZ=              0.0000
  YYZ=              0.4648  XYZ=              0.2843
 Hexadecapole moment (field-independent basis, Debye-Ang**3):
 XXXX=            -67.7033 YYYY=           -171.3244 ZZZZ=            -36.1076 XXXY=            -11.3818
 XXXZ=              0.0000 YYYX=            -29.2443 YYYZ=              0.0000 ZZZX=              0.0000
 ZZZY=              0.0000 XXYY=            -61.8801 XXZZ=            -16.4914 YYZZ=            -54.9532
 XXYZ=              0.0000 YYXZ=              0.0000 ZZXY=             -4.5041
 N-N= 1.315363389006D+02 E-N=-8.032956772223D+02  KE= 2.286794519208D+02
 Symmetry A    KE= 1.158866410286D+02
 Symmetry B    KE= 1.127928108921D+02
 1\1\GINC-NODE7\SP\RM06L\6-31G(d,p)\C2H6O2\WUCH\03-Sep-2010\0\\#M06L/6-
 31G** SP SCF=(qc,maxcycle=800) Guess=Indo MaxDisk=64GB\\12-ethanediol 
 Rotatable Bond SP Calculation on node7.bme.utexas.edu\\0,1\C,0,-0.4296
 8,0.623579,0.069804\C,0,0.42968,-0.623579,0.069804\H,0,-0.06869,2.5255
 87,-0.033356\H,0,0.06869,-2.525587,-0.033356\O,0,0.42968,1.722518,-0.0
 77625\O,0,-0.42968,-1.722518,-0.077625\H,0,-1.131666,0.558761,-0.75691
 5\H,0,-1.001184,0.682361,0.992446\H,0,1.131666,-0.558761,-0.756915\H,0
 ,1.001184,-0.682361,0.992446\\Version=EM64L-G09RevA.02\State=1-A\HF=-2
 30.2165526\RMSD=0.000e+00\Dipole=0.,0.,0.1535209\Quadrupole=-2.4352664
 ,4.0909836,-1.6557172,-4.3467282,0.,0.\PG=C02 [X(C2H6O2)]\\@


 If your ship doesn't come in, swim out to it!
                          -- Jonathan Winters
 Job cpu time:  0 days  0 hours  5 minutes 17.4 seconds.
 File lengths (MBytes):  RWF=      5 Int=      0 D2E=      0 Chk=      1 Scr=      1
 Normal termination of Gaussian 09 at Fri Sep  3 18:12:57 2010.
