 Entering Gaussian System, Link 0=/opt/g09/gaussian/g09/bin/g09
 Input=12-ethanediol-m06lsp-5-1-2-6-103.com
 Output=12-ethanediol-m06lsp-5-1-2-6-103.log
 Initial command:
 /opt/g09/gaussian/g09/bin/l1.exe /scratch/Gau-12-ethanediol/Gau-28210.inp -scrdir=/scratch/Gau-12-ethanediol/
 Entering Link 1 = /opt/g09/gaussian/g09/bin/l1.exe PID=     28211.
  
 Copyright (c) 1988,1990,1992,1993,1995,1998,2003,2009, Gaussian, Inc.
                  All Rights Reserved.
  
 This is part of the Gaussian(R) 09 program.  It is based on
 the Gaussian(R) 03 system (copyright 2003, Gaussian, Inc.),
 the Gaussian(R) 98 system (copyright 1998, Gaussian, Inc.),
 the Gaussian(R) 94 system (copyright 1995, Gaussian, Inc.),
 the Gaussian 92(TM) system (copyright 1992, Gaussian, Inc.),
 the Gaussian 90(TM) system (copyright 1990, Gaussian, Inc.),
 the Gaussian 88(TM) system (copyright 1988, Gaussian, Inc.),
 the Gaussian 86(TM) system (copyright 1986, Carnegie Mellon
 University), and the Gaussian 82(TM) system (copyright 1983,
 Carnegie Mellon University). Gaussian is a federally registered
 trademark of Gaussian, Inc.
  
 This software contains proprietary and confidential information,
 including trade secrets, belonging to Gaussian, Inc.
  
 This software is provided under written license and may be
 used, copied, transmitted, or stored only in accord with that
 written license.
  
 The following legend is applicable only to US Government
 contracts under FAR:
  
                    RESTRICTED RIGHTS LEGEND
  
 Use, reproduction and disclosure by the US Government is
 subject to restrictions as set forth in subparagraphs (a)
 and (c) of the Commercial Computer Software - Restricted
 Rights clause in FAR 52.227-19.
  
 Gaussian, Inc.
 340 Quinnipiac St., Bldg. 40, Wallingford CT 06492
  
  
 ---------------------------------------------------------------
 Warning -- This program may not be used in any manner that
 competes with the business of Gaussian, Inc. or will provide
 assistance to any competitor of Gaussian, Inc.  The licensee
 of this program is prohibited from giving any competitor of
 Gaussian, Inc. access to this program.  By using this program,
 the user acknowledges that Gaussian, Inc. is engaged in the
 business of creating and licensing software in the field of
 computational chemistry and represents and warrants to the
 licensee that it is not a competitor of Gaussian, Inc. and that
 it will not use this program in any manner prohibited above.
 ---------------------------------------------------------------
  

 Cite this work as:
 Gaussian 09, Revision A.02,
 M. J. Frisch, G. W. Trucks, H. B. Schlegel, G. E. Scuseria, 
 M. A. Robb, J. R. Cheeseman, G. Scalmani, V. Barone, B. Mennucci, 
 G. A. Petersson, H. Nakatsuji, M. Caricato, X. Li, H. P. Hratchian, 
 A. F. Izmaylov, J. Bloino, G. Zheng, J. L. Sonnenberg, M. Hada, 
 M. Ehara, K. Toyota, R. Fukuda, J. Hasegawa, M. Ishida, T. Nakajima, 
 Y. Honda, O. Kitao, H. Nakai, T. Vreven, J. A. Montgomery, Jr., 
 J. E. Peralta, F. Ogliaro, M. Bearpark, J. J. Heyd, E. Brothers, 
 K. N. Kudin, V. N. Staroverov, R. Kobayashi, J. Normand, 
 K. Raghavachari, A. Rendell, J. C. Burant, S. S. Iyengar, J. Tomasi, 
 M. Cossi, N. Rega, J. M. Millam, M. Klene, J. E. Knox, J. B. Cross, 
 V. Bakken, C. Adamo, J. Jaramillo, R. Gomperts, R. E. Stratmann, 
 O. Yazyev, A. J. Austin, R. Cammi, C. Pomelli, J. W. Ochterski, 
 R. L. Martin, K. Morokuma, V. G. Zakrzewski, G. A. Voth, 
 P. Salvador, J. J. Dannenberg, S. Dapprich, A. D. Daniels, 
 O. Farkas, J. B. Foresman, J. V. Ortiz, J. Cioslowski, 
 and D. J. Fox, Gaussian, Inc., Wallingford CT, 2009.
 
 ******************************************
 Gaussian 09:  EM64L-G09RevA.02 11-Jun-2009
                 3-Sep-2010 
 ******************************************
 %RWF=/scratch/Gau-12-ethanediol/,64GB
 %Chk=12-ethanediol-m06lsp-5-1-2-6-103.chk
 %Mem=778484KB
 %Nproc=1
 Will use up to    1 processors via shared memory.
 --------------------------------------------------------------
 #M06L/6-31G** SP SCF=(qc,maxcycle=800) Guess=Indo MaxDisk=64GB
 --------------------------------------------------------------
 1/38=1/1;
 2/12=2,17=6,18=5,40=1/2;
 3/5=1,6=6,7=101,11=2,16=1,25=1,30=1,74=-53/1,2,3;
 4/5=4,11=3/1;
 5/5=2,7=800,8=3,38=5/8;
 6/7=2,8=2,9=2,10=2,28=1/1;
 99/5=1,9=1/99;
 -------------------------------------------------------------------
 12-ethanediol Rotatable Bond SP Calculation on node7.bme.utexas.edu
 -------------------------------------------------------------------
 Symbolic Z-matrix:
 Charge =  0 Multiplicity = 1
 C                     0.35401   0.67387   0.40749 
 C                    -0.35401  -0.67387   0.40749 
 H                     0.14307   2.35581  -0.53658 
 H                    -0.14307  -2.35581  -0.53658 
 O                    -0.35401   1.55816  -0.42356 
 O                     0.35401  -1.55816  -0.42356 
 H                     0.39387   1.07107   1.41961 
 H                     1.3713    0.52655   0.06045 
 H                    -0.39387  -1.07107   1.41961 
 H                    -1.3713   -0.52655   0.06045 
 
                          Input orientation:                          
 ---------------------------------------------------------------------
 Center     Atomic      Atomic             Coordinates (Angstroms)
 Number     Number       Type             X           Y           Z
 ---------------------------------------------------------------------
      1          6           0        0.354013    0.673872    0.407494
      2          6           0       -0.354013   -0.673872    0.407494
      3          1           0        0.143069    2.355805   -0.536582
      4          1           0       -0.143069   -2.355805   -0.536582
      5          8           0       -0.354013    1.558163   -0.423555
      6          8           0        0.354013   -1.558163   -0.423555
      7          1           0        0.393872    1.071071    1.419614
      8          1           0        1.371302    0.526550    0.060448
      9          1           0       -0.393872   -1.071071    1.419614
     10          1           0       -1.371302   -0.526550    0.060448
 ---------------------------------------------------------------------
                    Distance matrix (angstroms):
                    1          2          3          4          5
     1  C    0.000000
     2  C    1.522404   0.000000
     3  H    1.940277   3.212057   0.000000
     4  H    3.212057   1.940277   4.720291   0.000000
     5  O    1.404960   2.381727   0.946625   3.921278   0.000000
     6  O    2.381727   1.404960   3.921278   0.946625   3.195745
     7  H    1.087999   2.151405   2.353752   3.982272   2.047892
     8  H    1.084906   2.130297   2.282800   3.310247   2.067655
     9  H    2.151405   1.087999   3.982272   2.353752   3.211189
    10  H    2.130297   1.084906   3.310247   2.282800   2.369634
                    6          7          8          9         10
     6  O    0.000000
     7  H    3.211189   0.000000
     8  H    2.369634   1.760456   0.000000
     9  H    2.047892   2.282392   2.741453   0.000000
    10  H    2.067655   2.741453   2.937839   1.760456   0.000000
 Stoichiometry    C2H6O2
 Framework group  C2[X(C2H6O2)]
 Deg. of freedom    13
 Full point group                 C2      NOp   2
 Largest Abelian subgroup         C2      NOp   2
 Largest concise Abelian subgroup C2      NOp   2
                         Standard orientation:                         
 ---------------------------------------------------------------------
 Center     Atomic      Atomic             Coordinates (Angstroms)
 Number     Number       Type             X           Y           Z
 ---------------------------------------------------------------------
      1          6           0        0.354013    0.673872    0.407494
      2          6           0       -0.354013   -0.673872    0.407494
      3          1           0        0.143069    2.355805   -0.536582
      4          1           0       -0.143069   -2.355805   -0.536582
      5          8           0       -0.354013    1.558163   -0.423555
      6          8           0        0.354013   -1.558163   -0.423555
      7          1           0        0.393872    1.071071    1.419614
      8          1           0        1.371302    0.526550    0.060448
      9          1           0       -0.393872   -1.071071    1.419614
     10          1           0       -1.371302   -0.526550    0.060448
 ---------------------------------------------------------------------
 Rotational constants (GHZ):     20.5319370      4.4415401      4.2899287
 Standard basis: 6-31G(d,p) (6D, 7F)
 There are    45 symmetry adapted basis functions of A   symmetry.
 There are    45 symmetry adapted basis functions of B   symmetry.
 Integral buffers will be    131072 words long.
 Raffenetti 2 integral format.
 Two-electron integral symmetry is turned on.
    90 basis functions,   154 primitive gaussians,    90 cartesian basis functions
    17 alpha electrons       17 beta electrons
       nuclear repulsion energy       132.0232614478 Hartrees.
 NAtoms=   10 NActive=   10 NUniq=    5 SFac= 3.00D+00 NAtFMM=   80 NAOKFM=F Big=F
 One-electron integrals computed using PRISM.
 NBasis=    90 RedAO= T  NBF=    45    45
 NBsUse=    90 1.00D-06 NBFU=    45    45
 Projected INDO guess.
 Initial guess orbital symmetries:
       Occupied  (B) (A) (A) (B) (A) (B) (A) (B) (A) (B) (A) (B)
                 (A) (B) (A) (A) (B)
       Virtual   (B) (A) (B) (A) (A) (B) (B) (B) (A) (A) (A) (A)
                 (A) (A) (A) (A) (A) (A) (A) (A) (A) (A) (A) (A)
                 (A) (A) (A) (A) (A) (A) (A) (A) (A) (A) (A) (A)
                 (A) (A) (A) (A) (A) (B) (B) (B) (B) (B) (B) (B)
                 (B) (B) (B) (B) (B) (B) (B) (B) (B) (B) (B) (B)
                 (B) (B) (B) (B) (B) (B) (B) (B) (B) (B) (B) (B)
                 (B)
 The electronic state of the initial guess is 1-A.
 Keep J ints in memory in canonical form, NReq=9445589.
 Gradient too large for Newton-Raphson -- use scaled steepest descent instead.
 Gradient too large for Newton-Raphson -- use scaled steepest descent instead.
 Gradient too large for Newton-Raphson -- use scaled steepest descent instead.
 Gradient too large for Newton-Raphson -- use scaled steepest descent instead.
 Gradient too large for Newton-Raphson -- use scaled steepest descent instead.
 Gradient too large for Newton-Raphson -- use scaled steepest descent instead.
 Gradient too large for Newton-Raphson -- use scaled steepest descent instead.
 LinEq1:  Iter=  0 NonCon=     1 RMS=5.88D-05 Max=7.23D-04
 AX will form     1 AO Fock derivatives at one time.
 LinEq1:  Iter=  1 NonCon=     1 RMS=3.07D-05 Max=2.85D-04
 LinEq1:  Iter=  2 NonCon=     1 RMS=2.51D-06 Max=2.59D-05
 LinEq1:  Iter=  3 NonCon=     1 RMS=1.76D-07 Max=1.37D-06
 LinEq1:  Iter=  4 NonCon=     1 RMS=2.16D-08 Max=2.10D-07
 LinEq1:  Iter=  5 NonCon=     1 RMS=9.18D-09 Max=7.63D-08
 LinEq1:  Iter=  6 NonCon=     0 RMS=2.29D-09 Max=1.56D-08
 Linear equations converged to 4.982D-09 4.982D-08 after     6 iterations.
 LinEq1:  Iter=  0 NonCon=     1 RMS=2.25D-08 Max=2.93D-07
 LinEq1:  Iter=  1 NonCon=     1 RMS=6.35D-09 Max=5.95D-08
 LinEq1:  Iter=  2 NonCon=     1 RMS=3.18D-09 Max=2.52D-08
 LinEq1:  Iter=  3 NonCon=     1 RMS=1.54D-09 Max=1.68D-08
 LinEq1:  Iter=  4 NonCon=     1 RMS=8.26D-10 Max=7.34D-09
 LinEq1:  Iter=  5 NonCon=     1 RMS=2.90D-10 Max=3.14D-09
 LinEq1:  Iter=  6 NonCon=     1 RMS=5.61D-11 Max=3.53D-10
 LinEq1:  Iter=  7 NonCon=     1 RMS=1.19D-11 Max=9.43D-11
 LinEq1:  Iter=  8 NonCon=     0 RMS=2.44D-12 Max=2.05D-11
 Linear equations converged to 8.813D-12 8.813D-11 after     8 iterations.
 SCF Done:  E(RM06L) =  -230.212837605     a.u. after   10 cycles
            Convg  =    0.1246D-10                    45 Fock formations.
              S**2 =  0.0000                  -V/T =  2.0067

 **********************************************************************

            Population analysis using the SCF density.

 **********************************************************************

 Orbital symmetries:
       Occupied  (B) (A) (A) (B) (A) (B) (A) (B) (B) (A) (A) (A)
                 (B) (B) (A) (A) (B)
       Virtual   (B) (A) (A) (A) (B) (B) (B) (B) (A) (B) (A) (A)
                 (B) (A) (B) (A) (B) (A) (B) (A) (B) (A) (B) (A)
                 (B) (A) (B) (A) (B) (A) (B) (A) (B) (B) (A) (A)
                 (B) (A) (B) (A) (B) (B) (A) (A) (B) (A) (B) (A)
                 (B) (A) (B) (B) (A) (A) (B) (A) (B) (B) (A) (A)
                 (B) (B) (A) (A) (B) (A) (A) (B) (B) (B) (A) (A)
                 (B)
 The electronic state is 1-A.
 Alpha  occ. eigenvalues --  -18.97407 -18.97407 -10.09921 -10.09908  -0.99759
 Alpha  occ. eigenvalues --   -0.98537  -0.70154  -0.56983  -0.49158  -0.47438
 Alpha  occ. eigenvalues --   -0.39577  -0.37976  -0.37407  -0.31012  -0.28111
 Alpha  occ. eigenvalues --   -0.22743  -0.21919
 Alpha virt. eigenvalues --    0.08495   0.08898   0.14020   0.14671   0.15409
 Alpha virt. eigenvalues --    0.17855   0.20734   0.22585   0.25193   0.54429
 Alpha virt. eigenvalues --    0.54724   0.56529   0.61632   0.65991   0.70784
 Alpha virt. eigenvalues --    0.76913   0.79839   0.81044   0.82725   0.84693
 Alpha virt. eigenvalues --    0.85824   0.93215   0.94536   0.97826   0.99164
 Alpha virt. eigenvalues --    0.99906   1.13903   1.17391   1.23281   1.36883
 Alpha virt. eigenvalues --    1.37497   1.50792   1.55685   1.58881   1.59409
 Alpha virt. eigenvalues --    1.68819   1.77433   1.85106   1.92012   1.92578
 Alpha virt. eigenvalues --    1.95062   1.97161   1.98191   2.04368   2.13219
 Alpha virt. eigenvalues --    2.15518   2.32156   2.36525   2.39270   2.46236
 Alpha virt. eigenvalues --    2.47411   2.60778   2.66796   2.71613   2.71658
 Alpha virt. eigenvalues --    2.75509   2.75693   2.79555   2.81864   2.91351
 Alpha virt. eigenvalues --    2.95387   3.08820   3.08896   3.34598   3.39582
 Alpha virt. eigenvalues --    3.44145   3.55992   3.56587   3.57793   3.95044
 Alpha virt. eigenvalues --    4.10784   4.43689   4.71040
          Condensed to atoms (all electrons):
              1          2          3          4          5          6
     1  C    4.780267   0.353500  -0.022666   0.006966   0.230357  -0.051082
     2  C    0.353500   4.780267   0.006966  -0.022666  -0.051082   0.230357
     3  H   -0.022666   0.006966   0.402238   0.000016   0.293446  -0.000195
     4  H    0.006966  -0.022666   0.000016   0.402238  -0.000195   0.293446
     5  O    0.230357  -0.051082   0.293446  -0.000195   8.183513   0.001529
     6  O   -0.051082   0.230357  -0.000195   0.293446   0.001529   8.183513
     7  H    0.372979  -0.044977  -0.003199  -0.000357  -0.045533   0.002957
     8  H    0.382346  -0.043425  -0.007004   0.000032  -0.036162   0.001442
     9  H   -0.044977   0.372979  -0.000357  -0.003199   0.002957  -0.045533
    10  H   -0.043425   0.382346   0.000032  -0.007004   0.001442  -0.036162
              7          8          9         10
     1  C    0.372979   0.382346  -0.044977  -0.043425
     2  C   -0.044977  -0.043425   0.372979   0.382346
     3  H   -0.003199  -0.007004  -0.000357   0.000032
     4  H   -0.000357   0.000032  -0.003199  -0.007004
     5  O   -0.045533  -0.036162   0.002957   0.001442
     6  O    0.002957   0.001442  -0.045533  -0.036162
     7  H    0.679336  -0.052642  -0.001565   0.002358
     8  H   -0.052642   0.624358   0.002358   0.005526
     9  H   -0.001565   0.002358   0.679336  -0.052642
    10  H    0.002358   0.005526  -0.052642   0.624358
 Mulliken atomic charges:
              1
     1  C    0.035735
     2  C    0.035735
     3  H    0.330723
     4  H    0.330723
     5  O   -0.580272
     6  O   -0.580272
     7  H    0.090644
     8  H    0.123169
     9  H    0.090644
    10  H    0.123169
 Sum of Mulliken atomic charges =   0.00000
 Mulliken charges with hydrogens summed into heavy atoms:
              1
     1  C    0.249549
     2  C    0.249549
     5  O   -0.249549
     6  O   -0.249549
 Sum of Mulliken charges with hydrogens summed into heavy atoms =   0.00000
 Electronic spatial extent (au):  <R**2>=            319.6015
 Charge=              0.0000 electrons
 Dipole moment (field-independent basis, Debye):
    X=              0.0000    Y=              0.0000    Z=              0.9445  Tot=              0.9445
 Quadrupole moment (field-independent basis, Debye-Ang):
   XX=            -25.3759   YY=            -17.3939   ZZ=            -25.2234
   XY=              5.2328   XZ=              0.0000   YZ=              0.0000
 Traceless Quadrupole moment (field-independent basis, Debye-Ang):
   XX=             -2.7115   YY=              5.2705   ZZ=             -2.5590
   XY=              5.2328   XZ=              0.0000   YZ=              0.0000
 Octapole moment (field-independent basis, Debye-Ang**2):
  XXX=              0.0000  YYY=              0.0000  ZZZ=             -2.7189  XYY=              0.0000
  XXY=              0.0000  XXZ=             -1.3199  XZZ=              0.0000  YZZ=              0.0000
  YYZ=             -6.6273  XYZ=             -2.2238
 Hexadecapole moment (field-independent basis, Debye-Ang**3):
 XXXX=            -54.9540 YYYY=           -166.1682 ZZZZ=            -63.7484 XXXY=              6.4900
 XXXZ=              0.0000 YYYX=             22.4996 YYYZ=              0.0000 ZZZX=              0.0000
 ZZZY=              0.0000 XXYY=            -53.9948 XXZZ=            -20.5389 YYZZ=            -48.7291
 XXYZ=              0.0000 YYXZ=              0.0000 ZZXY=              2.5247
 N-N= 1.320232614478D+02 E-N=-8.043209588212D+02  KE= 2.286766701913D+02
 Symmetry A    KE= 1.155954606636D+02
 Symmetry B    KE= 1.130812095277D+02
 1\1\GINC-NODE7\SP\RM06L\6-31G(d,p)\C2H6O2\WUCH\03-Sep-2010\0\\#M06L/6-
 31G** SP SCF=(qc,maxcycle=800) Guess=Indo MaxDisk=64GB\\12-ethanediol 
 Rotatable Bond SP Calculation on node7.bme.utexas.edu\\0,1\C,0,0.35401
 3,0.673872,0.407494\C,0,-0.354013,-0.673872,0.407494\H,0,0.143069,2.35
 5805,-0.536582\H,0,-0.143069,-2.355805,-0.536582\O,0,-0.354013,1.55816
 3,-0.423555\O,0,0.354013,-1.558163,-0.423555\H,0,0.393872,1.071071,1.4
 19614\H,0,1.371302,0.52655,0.060448\H,0,-0.393872,-1.071071,1.419614\H
 ,0,-1.371302,-0.52655,0.060448\\Version=EM64L-G09RevA.02\State=1-A\HF=
 -230.2128376\RMSD=0.000e+00\Dipole=0.,0.,0.3716019\Quadrupole=-2.01595
 28,3.9185092,-1.9025565,3.8904307,0.,0.\PG=C02 [X(C2H6O2)]\\@


 SUCCESS-- IF YOU HAVE TRIED TO DO SOMETHING AND FAILED
           YOU ARE BETTER OFF THAN IF YOU HAD TRIED TO DO
           NOTHING AND SUCCEEDED.

                   -- FROM THE BACK OF A SUGAR PACKET
 Job cpu time:  0 days  0 hours  5 minutes 53.8 seconds.
 File lengths (MBytes):  RWF=      5 Int=      0 D2E=      0 Chk=      1 Scr=      1
 Normal termination of Gaussian 09 at Fri Sep  3 17:54:05 2010.
