Self 0 0:       3.64785674
Self 0 1:      24.83183791
Self 0 2:       5.17634231
Self 0 3:    1036.34360501
Self 0 4:    1091.18106483
Self 0 5:     133.01714177
Self 0 6:      93.32530779
Self 0 7:     293.00549416
Self 1 0:       0.54971722
Self 1 1:      34.83073531
Self 1 2:       3.60278351
Self 1 3:     844.22207137
Self 1 4:    4101.75077895
Self 1 5:     141.67966431
Self 1 6:      75.70126739
Self 1 7:     262.54935244
Self 2 0:       2.26211956
Self 2 1:      81.65804130
Self 2 2:       0.83822098
Self 2 3:    1168.59814465
Self 2 4:     826.90600100
Self 2 5:     142.57385747
Self 2 6:     102.20492107
Self 2 7:     257.53656393
Self 3 0:       5.75615199
Self 3 1:      59.47468885
Self 3 2:       7.56575986
Self 3 3:    1377.68130331
Self 3 4:    7957.27233184
Self 3 5:     146.59104802
Self 3 6:     156.01561432
Self 3 7:     302.91930908
Self 4 0:     -41.41633181
Self 4 1:      50.46485603
Self 4 2:      66.95500594
Self 4 3:     -64.38861893
Self 4 4:      56.85395118
Self 4 5:    1662.94311277
Self 4 6:    5553.43564473
Self 4 7:   32042.11090279
Self 4 8:    7176.16041096
Self 4 9:   47721.75777872
Self 4 10:    4091.30360831
Self 4 11:    7053.81743575
Self 4 12:   37219.19192692
Self 4 13: 3667519.82886167
Self 4 14:   16586.16339436
Self 4 15:   85943.63463763
Self 4 16:    3113.63345020
Self 4 17:   12002.55615075
Self 4 18:   14722.30094373
Self 4 19:   48164.69546997
Self 4 20:   15935.02641952
Self 4 21:    8256.05772139
Self 4 22:    2594.51040679
Self 4 23:    2617.79474283
Self 4 24:   10197.68292258
Self 4 25:    8257.93658313
Self 4 26:    8051.73165341
Self 4 27:  265798.49908675
Self 5 0:       3.32850540
Self 5 1:       4.43460352
Self 5 2:      43.69985438
Self 5 3:      26.54561403
Self 6 0:      -8.00704729
Self 6 1:     331.67801957
Self 6 2:     187.52271346
Self 6 3:      42.35408431
Self 6 4:     153.86303030
Self 6 5:    3207.18847761
Self 6 6:    9188.50886050
Self 6 7:   61172.94253097
Self 6 8:   15511.80620101
Self 6 9:  120855.73287310
Self 6 10:    6509.22123979
Self 6 11:   10651.49611485
Self 6 12:   53766.86402752
Self 6 13:  930392.58615429
Self 6 14:   14399.20152281
Self 6 15:  151142.61226136
Self 6 16:    3035.03497900
Self 6 17:   12064.93700031
Self 6 18:   13743.82899376
Self 6 19:   21184.27961628
Self 6 20:   14605.18606948
Self 6 21:    6868.38296664
Self 6 22:    3148.50523128
Self 6 23:    3243.20493523
Self 6 24:    8645.36038740
Self 6 25:    7171.50513111
Self 6 26:    6967.88274488
Self 6 27:  229611.77438812
Self 7 0:       8.43803925
Self 7 1:     327.86750193
Self 7 2:     267.23053539
Self 7 3:       7.51940886
Pair 1 0, 4 0:       0.68770913
Pair 1 0, 4 3:       0.65808958
Pair 1 2, 4 0:       0.70391012
Pair 1 2, 4 3:       0.24159246
Pair 3 0, 6 0:       0.54443727
Pair 3 2, 6 0:       0.58629505
