12-ethanediol Gaussian SP Calculation on node2.bme.utexas.edu           
SP        RHF                                                         6-31G(2d)           
Number of atoms                            I               10
Charge                                     I                0
Multiplicity                               I                1
Number of electrons                        I               34
Number of alpha electrons                  I               17
Number of beta electrons                   I               17
Number of basis functions                  I               96
Number of independant functions            I               96
Number of point charges in /Mol/           I                0
Number of translation vectors              I                0
Info1-9                                    I   N=           9
          19          19           0           0           0         110
           1           1           2
Num ILSW                                   I              100
ILSW                                       I   N=         100
           0           1           0           0           2           0
           0           0           0           0           0     1000000
           0           0           0           0           0           0
           0     1000000           0           0           0           0
           1           0           0           0     1000000           0
           0           0           0           0          -1           0
           0           0           0           0           0           0
           0           0           0           1           0           0
           0           0           1     1000000     1000000           0
           0           0           0           0           0           0
           0           0           0           0           0           0
           0           0           0           0           0           0
           0           0           0           0           0           0
           0           0           0           0           0           0
           0           0           0           0           0           0
           0           0           0           0           0           0
           0           0           0           0
Number of contracted shells                I               32
Highest angular momentum                   I                2
Largest degree of contraction              I                6
Number of primitive shells                 I               72
Pure/Cartesian d shells                    I                1
Pure/Cartesian f shells                    I                0
Virial Ratio                               R      1.999129622806610E+00
SCF Energy                                 R     -2.289262023736635E+02
Total Energy                               R     -2.289262023736635E+02
RMS Density                                R      8.771830769428160E-06
Atomic numbers                             I   N=          10
           6           6           1           1           8           8
           1           1           1           1
Nuclear charges                            R   N=          10
  6.00000000E+00  6.00000000E+00  1.00000000E+00  1.00000000E+00  8.00000000E+00
  8.00000000E+00  1.00000000E+00  1.00000000E+00  1.00000000E+00  1.00000000E+00
Current cartesian coordinates              R   N=          30
  5.29988812E-01  1.32517423E+00  9.88821876E-01 -5.29988812E-01 -1.32517423E+00
  9.88821876E-01  3.96154628E-01  4.17471306E+00 -1.30533022E+00 -3.96154628E-01
 -4.17471306E+00 -1.30533022E+00 -5.29988812E-01  2.67028129E+00 -1.02948689E+00
  5.29988812E-01 -2.67028129E+00 -1.02948689E+00  7.54114111E-02  2.22547378E+00
  2.78301668E+00  2.57427754E+00  1.21719528E+00  8.25277418E-01 -7.54114111E-02
 -2.22547378E+00  2.78301668E+00 -2.57427754E+00 -1.21719528E+00  8.25277418E-01
Int Atom Types                             I   N=          10
           0           0           0           0           0           0
           0           0           0           0
Force Field                                I                0
MM charges                                 R   N=          10
  0.00000000E+00  0.00000000E+00  0.00000000E+00  0.00000000E+00  0.00000000E+00
  0.00000000E+00  0.00000000E+00  0.00000000E+00  0.00000000E+00  0.00000000E+00
Integer atomic weights                     I   N=          10
          12          12           1           1          16          16
           1           1           1           1
Real atomic weights                        R   N=          10
  1.20000000E+01  1.20000000E+01  1.00782504E+00  1.00782504E+00  1.59949146E+01
  1.59949146E+01  1.00782504E+00  1.00782504E+00  1.00782504E+00  1.00782504E+00
Atom residue info                          I   N=          10
           0           0           0           0           0           0
           0           0           0           0
Atom fragment info                         I   N=          10
           0           0           0           0           0           0
           0           0           0           0
Atom residue num                           I   N=          10
           0           0           0           0           0           0
           0           0           0           0
Nuclear spins                              I   N=          10
           0           0           1           1           0           0
           1           1           1           1
Nuclear ZEff                               R   N=          10
 -3.60000000E+00 -3.60000000E+00 -1.00000000E+00 -1.00000000E+00 -5.60000000E+00
 -5.60000000E+00 -1.00000000E+00 -1.00000000E+00 -1.00000000E+00 -1.00000000E+00
Nuclear QMom                               R   N=          10
  0.00000000E+00  0.00000000E+00  0.00000000E+00  0.00000000E+00  0.00000000E+00
  0.00000000E+00  0.00000000E+00  0.00000000E+00  0.00000000E+00  0.00000000E+00
Nuclear GFac                               R   N=          10
  0.00000000E+00  0.00000000E+00  2.79284600E+00  2.79284600E+00  0.00000000E+00
  0.00000000E+00  2.79284600E+00  2.79284600E+00  2.79284600E+00  2.79284600E+00
MicOpt                                     I   N=          10
           0           0           0           0           0           0
           0           0           0           0
Constraint Structure                       R   N=          30
  5.29988812E-01  1.32517423E+00  9.88821876E-01 -5.29988812E-01 -1.32517423E+00
  9.88821876E-01  3.96154628E-01  4.17471306E+00 -1.30533022E+00 -3.96154628E-01
 -4.17471306E+00 -1.30533022E+00 -5.29988812E-01  2.67028129E+00 -1.02948689E+00
  5.29988812E-01 -2.67028129E+00 -1.02948689E+00  7.54114111E-02  2.22547378E+00
  2.78301668E+00  2.57427754E+00  1.21719528E+00  8.25277418E-01 -7.54114111E-02
 -2.22547378E+00  2.78301668E+00 -2.57427754E+00 -1.21719528E+00  8.25277418E-01
ONIOM Charges                              I   N=          16
           0           0           0           0           0           0
           0           0           0           0           0           0
           0           0           0           0
ONIOM Multiplicities                       I   N=          16
           1           0           0           0           0           0
           0           0           0           0           0           0
           0           0           0           0
Atom Layers                                I   N=          10
           1           1           1           1           1           1
           1           1           1           1
Atom Modifiers                             I   N=          10
           0           0           0           0           0           0
           0           0           0           0
Int Atom Modified Types                    I   N=          10
           0           0           0           0           0           0
           0           0           0           0
Link Atoms                                 I   N=          10
           0           0           0           0           0           0
           0           0           0           0
Atom Modified MM Charges                   R   N=          10
  0.00000000E+00  0.00000000E+00  0.00000000E+00  0.00000000E+00  0.00000000E+00
  0.00000000E+00  0.00000000E+00  0.00000000E+00  0.00000000E+00  0.00000000E+00
Link Distances                             R   N=          40
  0.00000000E+00  0.00000000E+00  0.00000000E+00  0.00000000E+00  0.00000000E+00
  0.00000000E+00  0.00000000E+00  0.00000000E+00  0.00000000E+00  0.00000000E+00
  0.00000000E+00  0.00000000E+00  0.00000000E+00  0.00000000E+00  0.00000000E+00
  0.00000000E+00  0.00000000E+00  0.00000000E+00  0.00000000E+00  0.00000000E+00
  0.00000000E+00  0.00000000E+00  0.00000000E+00  0.00000000E+00  0.00000000E+00
  0.00000000E+00  0.00000000E+00  0.00000000E+00  0.00000000E+00  0.00000000E+00
  0.00000000E+00  0.00000000E+00  0.00000000E+00  0.00000000E+00  0.00000000E+00
  0.00000000E+00  0.00000000E+00  0.00000000E+00  0.00000000E+00  0.00000000E+00
MxBond                                     I                4
NBond                                      I   N=          10
           4           4           1           1           2           2
           1           1           1           1
IBond                                      I   N=          40
           2           5           7           8           1           6
           9          10           5           0           0           0
           6           0           0           0           1           3
           0           0           2           4           0           0
           1           0           0           0           1           0
           0           0           2           0           0           0
           2           0           0           0
RBond                                      R   N=          40
  1.00000000E+00  1.00000000E+00  1.00000000E+00  1.00000000E+00  1.00000000E+00
  1.00000000E+00  1.00000000E+00  1.00000000E+00  1.00000000E+00  0.00000000E+00
  0.00000000E+00  0.00000000E+00  1.00000000E+00  0.00000000E+00  0.00000000E+00
  0.00000000E+00  1.00000000E+00  1.00000000E+00  0.00000000E+00  0.00000000E+00
  1.00000000E+00  1.00000000E+00  0.00000000E+00  0.00000000E+00  1.00000000E+00
  0.00000000E+00  0.00000000E+00  0.00000000E+00  1.00000000E+00  0.00000000E+00
  0.00000000E+00  0.00000000E+00  1.00000000E+00  0.00000000E+00  0.00000000E+00
  0.00000000E+00  1.00000000E+00  0.00000000E+00  0.00000000E+00  0.00000000E+00
Shell types                                I   N=          32
           0          -1          -1           2           2           0
          -1          -1           2           2           0           0
           0           0           0          -1          -1           2
           2           0          -1          -1           2           2
           0           0           0           0           0           0
           0           0
Number of primitives per shell             I   N=          32
           6           3           1           1           1           6
           3           1           1           1           3           1
           3           1           6           3           1           1
           1           6           3           1           1           1
           3           1           3           1           3           1
           3           1
Shell to atom map                          I   N=          32
           1           1           1           1           1           2
           2           2           2           2           3           3
           4           4           5           5           5           5
           5           6           6           6           6           6
           7           7           8           8           9           9
          10          10
Primitive exponents                        R   N=          72
  3.04752488E+03  4.57369518E+02  1.03948685E+02  2.92101553E+01  9.28666296E+00
  3.16392696E+00  7.86827235E+00  1.88128854E+00  5.44249258E-01  1.68714478E-01
  1.60000000E+00  4.00000000E-01  3.04752488E+03  4.57369518E+02  1.03948685E+02
  2.92101553E+01  9.28666296E+00  3.16392696E+00  7.86827235E+00  1.88128854E+00
  5.44249258E-01  1.68714478E-01  1.60000000E+00  4.00000000E-01  1.87311370E+01
  2.82539436E+00  6.40121692E-01  1.61277759E-01  1.87311370E+01  2.82539436E+00
  6.40121692E-01  1.61277759E-01  5.48467166E+03  8.25234946E+02  1.88046958E+02
  5.29645000E+01  1.68975704E+01  5.79963534E+00  1.55396162E+01  3.59993359E+00
  1.01376175E+00  2.70005823E-01  1.60000000E+00  4.00000000E-01  5.48467166E+03
  8.25234946E+02  1.88046958E+02  5.29645000E+01  1.68975704E+01  5.79963534E+00
  1.55396162E+01  3.59993359E+00  1.01376175E+00  2.70005823E-01  1.60000000E+00
  4.00000000E-01  1.87311370E+01  2.82539436E+00  6.40121692E-01  1.61277759E-01
  1.87311370E+01  2.82539436E+00  6.40121692E-01  1.61277759E-01  1.87311370E+01
  2.82539436E+00  6.40121692E-01  1.61277759E-01  1.87311370E+01  2.82539436E+00
  6.40121692E-01  1.61277759E-01
Contraction coefficients                   R   N=          72
  1.83473713E-03  1.40373228E-02  6.88426223E-02  2.32184443E-01  4.67941348E-01
  3.62311985E-01 -1.19332420E-01 -1.60854152E-01  1.14345644E+00  1.00000000E+00
  1.00000000E+00  1.00000000E+00  1.83473713E-03  1.40373228E-02  6.88426223E-02
  2.32184443E-01  4.67941348E-01  3.62311985E-01 -1.19332420E-01 -1.60854152E-01
  1.14345644E+00  1.00000000E+00  1.00000000E+00  1.00000000E+00  3.34946043E-02
  2.34726953E-01  8.13757326E-01  1.00000000E+00  3.34946043E-02  2.34726953E-01
  8.13757326E-01  1.00000000E+00  1.83107443E-03  1.39501722E-02  6.84450781E-02
  2.32714336E-01  4.70192898E-01  3.58520853E-01 -1.10777550E-01 -1.48026263E-01
  1.13076702E+00  1.00000000E+00  1.00000000E+00  1.00000000E+00  1.83107443E-03
  1.39501722E-02  6.84450781E-02  2.32714336E-01  4.70192898E-01  3.58520853E-01
 -1.10777550E-01 -1.48026263E-01  1.13076702E+00  1.00000000E+00  1.00000000E+00
  1.00000000E+00  3.34946043E-02  2.34726953E-01  8.13757326E-01  1.00000000E+00
  3.34946043E-02  2.34726953E-01  8.13757326E-01  1.00000000E+00  3.34946043E-02
  2.34726953E-01  8.13757326E-01  1.00000000E+00  3.34946043E-02  2.34726953E-01
  8.13757326E-01  1.00000000E+00
P(S=P) Contraction coefficients            R   N=          72
  0.00000000E+00  0.00000000E+00  0.00000000E+00  0.00000000E+00  0.00000000E+00
  0.00000000E+00  6.89990666E-02  3.16423961E-01  7.44308291E-01  1.00000000E+00
  0.00000000E+00  0.00000000E+00  0.00000000E+00  0.00000000E+00  0.00000000E+00
  0.00000000E+00  0.00000000E+00  0.00000000E+00  6.89990666E-02  3.16423961E-01
  7.44308291E-01  1.00000000E+00  0.00000000E+00  0.00000000E+00  0.00000000E+00
  0.00000000E+00  0.00000000E+00  0.00000000E+00  0.00000000E+00  0.00000000E+00
  0.00000000E+00  0.00000000E+00  0.00000000E+00  0.00000000E+00  0.00000000E+00
  0.00000000E+00  0.00000000E+00  0.00000000E+00  7.08742682E-02  3.39752839E-01
  7.27158577E-01  1.00000000E+00  0.00000000E+00  0.00000000E+00  0.00000000E+00
  0.00000000E+00  0.00000000E+00  0.00000000E+00  0.00000000E+00  0.00000000E+00
  7.08742682E-02  3.39752839E-01  7.27158577E-01  1.00000000E+00  0.00000000E+00
  0.00000000E+00  0.00000000E+00  0.00000000E+00  0.00000000E+00  0.00000000E+00
  0.00000000E+00  0.00000000E+00  0.00000000E+00  0.00000000E+00  0.00000000E+00
  0.00000000E+00  0.00000000E+00  0.00000000E+00  0.00000000E+00  0.00000000E+00
  0.00000000E+00  0.00000000E+00
Coordinates of each shell                  R   N=          96
  5.29988812E-01  1.32517423E+00  9.88821876E-01  5.29988812E-01  1.32517423E+00
  9.88821876E-01  5.29988812E-01  1.32517423E+00  9.88821876E-01  5.29988812E-01
  1.32517423E+00  9.88821876E-01  5.29988812E-01  1.32517423E+00  9.88821876E-01
 -5.29988812E-01 -1.32517423E+00  9.88821876E-01 -5.29988812E-01 -1.32517423E+00
  9.88821876E-01 -5.29988812E-01 -1.32517423E+00  9.88821876E-01 -5.29988812E-01
 -1.32517423E+00  9.88821876E-01 -5.29988812E-01 -1.32517423E+00  9.88821876E-01
  3.96154628E-01  4.17471306E+00 -1.30533022E+00  3.96154628E-01  4.17471306E+00
 -1.30533022E+00 -3.96154628E-01 -4.17471306E+00 -1.30533022E+00 -3.96154628E-01
 -4.17471306E+00 -1.30533022E+00 -5.29988812E-01  2.67028129E+00 -1.02948689E+00
 -5.29988812E-01  2.67028129E+00 -1.02948689E+00 -5.29988812E-01  2.67028129E+00
 -1.02948689E+00 -5.29988812E-01  2.67028129E+00 -1.02948689E+00 -5.29988812E-01
  2.67028129E+00 -1.02948689E+00  5.29988812E-01 -2.67028129E+00 -1.02948689E+00
  5.29988812E-01 -2.67028129E+00 -1.02948689E+00  5.29988812E-01 -2.67028129E+00
 -1.02948689E+00  5.29988812E-01 -2.67028129E+00 -1.02948689E+00  5.29988812E-01
 -2.67028129E+00 -1.02948689E+00  7.54114111E-02  2.22547378E+00  2.78301668E+00
  7.54114111E-02  2.22547378E+00  2.78301668E+00  2.57427754E+00  1.21719528E+00
  8.25277418E-01  2.57427754E+00  1.21719528E+00  8.25277418E-01 -7.54114111E-02
 -2.22547378E+00  2.78301668E+00 -7.54114111E-02 -2.22547378E+00  2.78301668E+00
 -2.57427754E+00 -1.21719528E+00  8.25277418E-01 -2.57427754E+00 -1.21719528E+00
  8.25277418E-01
Alpha Orbital Energies                     R   N=          96
 -2.03429258E+01 -2.03429258E+01 -1.11396438E+01 -1.11396438E+01 -1.07007130E+00
 -1.07007130E+00 -9.38705537E-01 -9.38705536E-01 -8.16245534E-01 -8.16245534E-01
 -8.13500676E-01 -6.89181082E-01 -6.89181082E-01 -6.87878845E-01 -6.87878845E-01
 -4.79852479E-01 -4.79852479E-01  6.03318128E-01  6.03318128E-01  6.42523052E-01
  7.05683269E-01  7.05683269E-01  7.11165726E-01  7.11165726E-01  8.00612345E-01
  8.00612345E-01  7.83355197E-01  7.83355197E-01  8.51666712E-01  8.51666712E-01
  8.54474671E-01  8.54474671E-01  9.11506298E-01  9.11506298E-01  1.22550807E+00
  1.22550807E+00  1.41410833E+00  1.41410833E+00  1.43007171E+00  1.43007171E+00
  1.48025477E+00  1.48025477E+00  1.57013420E+00  1.57013420E+00  1.57941746E+00
  1.57941746E+00  1.68468692E+00  1.68468692E+00  1.69910349E+00  1.69910349E+00
  1.83752460E+00  1.83752460E+00  1.86241729E+00  1.86241729E+00  1.90722070E+00
  1.90722070E+00  1.91124207E+00  1.91124207E+00  1.91225775E+00  1.91225775E+00
  1.95059346E+00  1.95059347E+00  2.06975104E+00  2.06975104E+00  2.14510587E+00
  2.14510587E+00  2.38741692E+00  2.38741692E+00  4.02020192E+00  4.02020192E+00
  4.27301176E+00  4.27301176E+00  4.29047890E+00  4.29047890E+00  4.34170068E+00
  4.34170068E+00  4.43403170E+00  4.43403170E+00  4.46964788E+00  1.00000000E+03
  1.00000000E+03  1.00000000E+03  1.00000000E+03  1.00000000E+03  1.00000000E+03
  1.00000000E+03  1.00000000E+03  1.00000000E+03  1.00000000E+03  1.00000000E+03
  1.00000000E+03  1.00000000E+03  1.00000000E+03  1.00000000E+03  1.00000000E+03
  1.00000000E+03
Alpha MO coefficients                      R   N=        9216
 -3.55125906E-04  6.91841421E-04  8.63174651E-05 -8.50202150E-04 -2.16654357E-04
 -1.01082696E-03  5.02903911E-04  2.41152587E-04  4.02812597E-04  1.25489111E-04
  2.53120235E-05  4.12394681E-05  1.90336321E-05  2.87854831E-05 -9.75286340E-05
  2.09509398E-04 -1.84030295E-04  1.68179282E-04  7.14211398E-05 -1.91396753E-04
 -1.07912780E-05  1.62157897E-03 -6.16619521E-03 -3.85186774E-03  4.76277093E-03
  7.26822099E-03  7.26295031E-03  2.70473775E-05  1.07905589E-03  6.59442424E-05
  1.02611567E-04  9.60755682E-05 -3.54110069E-04  2.85864700E-04  4.46642871E-04
 -4.64449216E-04 -2.56260688E-04 -3.03739187E-04 -1.45045557E-03  7.88228683E-04
  1.05158320E-03 -1.28208968E-03  1.52236577E-05  1.07248332E-05 -1.06252137E-02
  2.76524137E-03 -6.93778382E-05  1.64490511E-05  1.68675774E-04 -3.64535045E-04
  1.34719847E-05  7.36477520E-04  2.46040084E-04 -1.43636987E-04  1.56789816E-04
 -1.29569945E-05  2.07880180E-05 -9.77544254E-06  5.70742453E-06  4.88611938E-06
 -4.05907349E-05 -6.01833043E-05 -2.73048921E-04 -2.70692194E-05 -9.65708529E-05
  5.35315108E-05 -4.45265286E-05  1.01617065E+00 -6.99694873E-03 -2.87245095E-03
 -1.19194761E-03  1.85692067E-03 -1.12461684E-01 -1.48443822E-03 -1.48115830E-03
  2.83130670E-04  1.51262837E-03  7.40166482E-04  1.44824203E-03 -4.88317667E-04
  1.36002278E-04 -6.24563412E-04  1.75354792E-02  1.69957093E-02  1.68894943E-02
  3.40113929E-04  2.25694249E-04 -8.65072863E-04 -4.91997032E-04 -9.31875527E-04
  5.42846218E-04 -8.95647851E-05  1.21683231E-04 -2.52775288E-04  2.17498525E-05
 -7.34905655E-04  1.62157897E-03 -6.16619521E-03  3.85186774E-03 -4.76277093E-03
  7.26822099E-03  7.26295031E-03 -2.70473774E-05 -1.07905589E-03  6.59442425E-05
  1.02611566E-04  9.60755679E-05 -3.54110070E-04  2.85864700E-04 -4.46642871E-04
  4.64449216E-04 -2.56260689E-04 -3.03739188E-04 -1.45045557E-03  7.88228683E-04
 -1.05158320E-03  1.28208968E-03 -3.55125906E-04  6.91841421E-04 -8.63174651E-05
  8.50202151E-04 -2.16654357E-04 -1.01082697E-03 -5.02903911E-04 -2.41152587E-04
  4.02812598E-04  1.25489111E-04  2.53120235E-05  4.12394681E-05  1.90336321E-05
 -2.87854831E-05  9.75286340E-05  2.09509399E-04 -1.84030295E-04  1.68179282E-04
  7.14211397E-05  1.91396753E-04  1.07912781E-05 -1.06252137E-02  2.76524137E-03
  1.52236577E-05  1.07248332E-05  1.01617065E+00 -6.99694873E-03  2.87245095E-03
  1.19194761E-03  1.85692067E-03 -1.12461684E-01  1.48443822E-03  1.48115830E-03
  2.83130670E-04  1.51262837E-03  7.40166482E-04  1.44824203E-03 -4.88317667E-04
 -1.36002278E-04  6.24563412E-04  1.75354792E-02  1.69957093E-02  1.68894943E-02
  3.40113929E-04 -2.25694249E-04  8.65072863E-04 -6.93778382E-05  1.64490511E-05
 -1.68675774E-04  3.64535045E-04  1.34719847E-05  7.36477520E-04 -2.46040084E-04
  1.43636987E-04  1.56789816E-04 -1.29569945E-05  2.07880180E-05 -9.77544258E-06
  5.70742453E-06 -4.88611939E-06  4.05907349E-05 -6.01833043E-05 -2.73048921E-04
 -2.70692195E-05 -9.65708529E-05 -5.35315108E-05  4.45265286E-05  1.21683231E-04
 -2.52775288E-04  2.17498526E-05 -7.34905656E-04 -4.91997032E-04 -9.31875527E-04
  5.42846218E-04 -8.95647851E-05  2.87190353E-03 -9.20050734E-03  6.23207207E-03
  1.63212261E-02  4.07227094E-04 -3.83653177E-03  2.17979252E-03  6.49553495E-03
 -1.02438072E-04 -2.15817686E-04 -1.03073660E-03  2.70057870E-05 -5.26451160E-04
  3.71189923E-05 -5.29231446E-05 -5.43908978E-04 -2.32653005E-03  3.69020517E-04
 -1.20595331E-03  1.93393272E-04  2.92320977E-04  1.00998316E+00 -3.22878677E-02
  1.25152462E-03 -2.64393254E-03 -2.58248612E-03 -2.31905356E-02  2.66425840E-03
 -5.39224646E-04 -4.21522993E-03  3.77280996E-03  3.67103046E-03  3.63381802E-03
  6.22021607E-05  1.07346381E-04 -1.54057552E-04 -3.77605099E-03 -2.80843387E-03
 -3.25921966E-03 -6.56132930E-05 -8.44265982E-05  5.69618482E-04 -1.01856860E-03
 -1.68222700E-03  9.89347835E-04  7.53974466E-04 -4.22726683E-04  8.83735441E-04
  1.80540348E-04 -1.14023778E-03  8.86747426E-04  1.65847919E-03 -1.32286587E-04
 -1.26534905E-03  1.29989945E-04  4.64049201E-05 -2.40317073E-04  5.93002765E-05
 -3.46721533E-05  8.36633723E-05  1.18160837E-04  9.41541922E-05 -2.91278914E-04
  4.80416451E-05 -1.64854497E-06  1.19380914E-04  2.28879245E-04  2.66001010E-03
 -7.87012122E-03  8.20611756E-03 -8.96144878E-03 -1.45006864E-02 -6.89410661E-03
  5.69859773E-03 -5.19182127E-03 -9.20537335E-03  1.02754525E-04  1.83648650E-04
 -4.41530747E-04  3.58890444E-04  6.15548656E-04 -5.36433954E-04  3.55803052E-04
  1.27527361E-03 -3.90204684E-04  6.63416840E-04  1.59208730E-03 -7.41370541E-04
  8.67309968E-04  2.62708911E-03  1.82552146E-04  1.42300486E-03 -1.41521344E-02
 -3.91175318E-03 -1.42181028E-02 -4.10424078E-03  1.00998316E+00 -3.22878677E-02
 -1.25152462E-03  2.64393254E-03 -2.58248612E-03 -2.31905356E-02 -2.66425840E-03
  5.39224646E-04 -4.21522993E-03  3.77280996E-03  3.67103046E-03  3.63381801E-03
  6.22021607E-05 -1.07346381E-04  1.54057552E-04 -3.77605099E-03 -2.80843387E-03
 -3.25921965E-03 -6.56132931E-05  8.44265983E-05 -5.69618482E-04  2.87190353E-03
 -9.20050734E-03 -6.23207207E-03 -1.63212261E-02  4.07227094E-04 -3.83653177E-03
 -2.17979252E-03 -6.49553495E-03 -1.02438072E-04 -2.15817687E-04 -1.03073660E-03
  2.70057865E-05 -5.26451160E-04 -3.71189922E-05  5.29231446E-05 -5.43908979E-04
 -2.32653005E-03  3.69020517E-04 -1.20595331E-03 -1.93393272E-04 -2.92320977E-04
  9.89347835E-04  7.53974466E-04 -1.01856860E-03 -1.68222700E-03  2.66001011E-03
 -7.87012122E-03 -8.20611756E-03  8.96144878E-03 -1.45006864E-02 -6.89410663E-03
 -5.69859773E-03  5.19182127E-03 -9.20537335E-03  1.02754526E-04  1.83648652E-04
 -4.41530745E-04  3.58890444E-04 -6.15548656E-04  5.36433954E-04  3.55803059E-04
  1.27527362E-03 -3.90204676E-04  6.63416840E-04 -1.59208730E-03  7.41370541E-04
 -4.22726683E-04  8.83735441E-04 -1.80540348E-04  1.14023778E-03  8.86747426E-04
  1.65847920E-03  1.32286587E-04  1.26534905E-03  1.29989945E-04  4.64049200E-05
 -2.40317073E-04  5.93002765E-05 -3.46721533E-05 -8.36633723E-05 -1.18160837E-04
  9.41541921E-05 -2.91278914E-04  4.80416448E-05 -1.64854498E-06 -1.19380914E-04
 -2.28879245E-04 -1.41521344E-02 -3.91175318E-03 -1.42181028E-02 -4.10424078E-03
  8.67309968E-04  2.62708911E-03  1.82552146E-04  1.42300486E-03 -2.26173337E-02
  1.51681186E-01 -1.15132022E-01  1.61854365E-01 -2.29263282E-01 -2.81455045E-02
 -2.94581907E-02  7.37124284E-02 -7.69865650E-02  2.73274606E-04  4.07642977E-03
  1.24068041E-02 -6.59321125E-03  9.26391688E-03 -1.27964388E-02  6.67926553E-03
  5.35442219E-03  2.95280585E-02 -1.49102454E-02  2.27895198E-02 -2.41475035E-02
  5.66845262E-03 -1.26920353E-02 -9.41476504E-03 -2.19880078E-02 -2.81693516E-03
  2.47647745E-02  6.13383313E-03 -3.64400542E-03  1.15847256E-02 -2.04480077E-03
  6.56860792E-04 -8.48390656E-05 -9.48345737E-04 -2.16876555E-04 -2.69653527E-03
 -2.92102190E-03  6.40642116E-03 -2.91183940E-03  8.46695075E-04 -3.40190979E-03
 -5.75461891E-04 -1.83191794E-02 -5.03681562E-02 -2.19891319E-03 -1.19862790E-03
 -6.22633330E-02  2.37715501E-01  1.69100672E-01 -1.98447434E-01  3.11760561E-01
  2.72114305E-01  1.19881396E-01 -1.13679964E-01  1.99580589E-01 -4.20968539E-03
 -7.00054342E-03  4.40552018E-03 -5.68897904E-03  1.13815827E-02 -8.60605659E-03
 -1.55600374E-02 -3.43786242E-02 -1.20940537E-02 -5.91730522E-03  2.03364596E-02
 -1.41418667E-03  6.10374352E-05  5.04570896E-04  2.62621631E-03 -1.83012130E-03
 -1.34276595E-03 -2.88956696E-03  3.05344884E-03  1.53758495E-03 -3.11707590E-03
 -9.56049691E-05 -3.97122860E-04  1.71006178E-04 -1.75041645E-04 -1.39365483E-04
 -7.08908383E-04  9.90799285E-04  2.92356275E-03 -7.45832092E-04  8.99862628E-04
  7.72547731E-04  2.90855576E-04 -1.29308393E-02 -2.19274374E-02 -1.44459936E-02
 -2.15905239E-02  1.06659881E-02  1.67746678E-02 -6.15405859E-03 -1.17134564E-02
  5.66845262E-03 -1.26920353E-02  9.41476504E-03  2.19880078E-02 -2.81693516E-03
  2.47647745E-02 -6.13383313E-03  3.64400542E-03  1.15847256E-02 -2.04480077E-03
  6.56860792E-04 -8.48390654E-05 -9.48345737E-04  2.16876555E-04  2.69653527E-03
 -2.92102190E-03  6.40642116E-03 -2.91183940E-03  8.46695075E-04  3.40190979E-03
  5.75461892E-04 -2.26173337E-02  1.51681186E-01  1.15132022E-01 -1.61854365E-01
 -2.29263282E-01 -2.81455045E-02  2.94581907E-02 -7.37124284E-02 -7.69865650E-02
  2.73274606E-04  4.07642977E-03  1.24068041E-02 -6.59321125E-03 -9.26391688E-03
  1.27964388E-02  6.67926553E-03  5.35442219E-03  2.95280585E-02 -1.49102454E-02
 -2.27895198E-02  2.41475035E-02 -2.19891319E-03 -1.19862790E-03 -1.83191794E-02
 -5.03681562E-02  6.10374335E-05  5.04570884E-04 -2.62621631E-03  1.83012130E-03
 -1.34276595E-03 -2.88956693E-03 -3.05344884E-03 -1.53758495E-03 -3.11707591E-03
 -9.56049699E-05 -3.97122861E-04  1.71006176E-04 -1.75041645E-04  1.39365483E-04
  7.08908383E-04  9.90799276E-04  2.92356274E-03 -7.45832103E-04  8.99862628E-04
 -7.72547732E-04 -2.90855576E-04 -6.22633330E-02  2.37715501E-01 -1.69100672E-01
  1.98447434E-01  3.11760561E-01  2.72114305E-01 -1.19881396E-01  1.13679964E-01
  1.99580589E-01 -4.20968539E-03 -7.00054342E-03  4.40552018E-03 -5.68897904E-03
 -1.13815827E-02  8.60605659E-03 -1.55600374E-02 -3.43786242E-02 -1.20940537E-02
 -5.91730522E-03 -2.03364596E-02  1.41418667E-03  1.06659881E-02  1.67746678E-02
 -6.15405859E-03 -1.17134564E-02 -1.29308393E-02 -2.19274374E-02 -1.44459936E-02
 -2.15905239E-02 -7.33900277E-03  1.06649053E-02 -7.45845329E-03 -2.72029456E-02
 -7.32930050E-04  4.19964830E-02  8.84070238E-04 -3.27628002E-02 -4.31898017E-03
  1.65768362E-03  3.28480568E-04  8.85856715E-04  4.41286251E-04 -8.32733227E-05
 -1.39300594E-03  1.34713578E-03  3.10783481E-03 -1.43034854E-03  1.92504146E-03
  5.19673164E-04  1.07052714E-03  1.22347989E-02 -3.11373935E-02 -2.22041500E-02
  2.99380304E-02  4.45495554E-02 -4.77741632E-02 -1.09659132E-02  2.18545576E-02
  3.36528902E-02 -3.70785799E-03  2.62648228E-03 -2.92282829E-03  1.58606033E-03
  3.09564630E-03  1.26984674E-03 -9.52170933E-03  7.16060679E-03 -9.28098237E-03
  4.67725434E-03  1.14009493E-02  2.93898738E-03  1.06184776E-03  3.68952824E-03
  3.07238525E-01  1.00304178E-01 -3.83822664E-04  1.24888391E-03  1.71070744E-03
 -1.97662218E-03 -6.56493619E-04  1.45864506E-03  9.04177200E-04  8.15202608E-04
  2.91126966E-03  5.22434015E-05  1.36546083E-04 -5.78844229E-06 -1.58451123E-04
 -5.59524932E-05 -4.60960170E-04 -6.01688150E-04 -1.84885848E-04  8.91696406E-05
  4.18932881E-04  4.79866233E-04 -1.69427801E-03 -5.29893515E-02  1.84471531E-01
 -2.21740556E-01 -3.86073831E-01 -8.03746932E-02  2.49873760E-01 -1.51929265E-01
 -2.27542016E-01 -2.60641774E-02 -1.20941362E-04  1.06237687E-02 -1.33656526E-02
  1.99938933E-02  2.86855667E-03  3.32672572E-04 -1.69318543E-02 -1.82478933E-02
 -3.14957728E-02  1.63597797E-02 -3.68561833E-03 -5.05725264E-03 -6.69324529E-03
 -1.64361429E-02  3.60302949E-03 -8.75602769E-03 -4.35996803E-03 -6.89100121E-03
 -1.28228960E-02 -1.58896566E-02  1.22347989E-02 -3.11373935E-02  2.22041500E-02
 -2.99380304E-02  4.45495554E-02 -4.77741633E-02  1.09659132E-02 -2.18545576E-02