 Entering Gaussian System, Link 0=/opt/g09/gaussian/g09/bin/g09
 Input=12-ethanediol-esp.com
 Output=12-ethanediol-esp.log
 Initial command:
 /opt/g09/gaussian/g09/bin/l1.exe /scratch/Gau-12-ethanediol/Gau-21859.inp -scrdir=/scratch/Gau-12-ethanediol/
 Entering Link 1 = /opt/g09/gaussian/g09/bin/l1.exe PID=     21860.
  
 Copyright (c) 1988,1990,1992,1993,1995,1998,2003,2009, Gaussian, Inc.
                  All Rights Reserved.
  
 This is part of the Gaussian(R) 09 program.  It is based on
 the Gaussian(R) 03 system (copyright 2003, Gaussian, Inc.),
 the Gaussian(R) 98 system (copyright 1998, Gaussian, Inc.),
 the Gaussian(R) 94 system (copyright 1995, Gaussian, Inc.),
 the Gaussian 92(TM) system (copyright 1992, Gaussian, Inc.),
 the Gaussian 90(TM) system (copyright 1990, Gaussian, Inc.),
 the Gaussian 88(TM) system (copyright 1988, Gaussian, Inc.),
 the Gaussian 86(TM) system (copyright 1986, Carnegie Mellon
 University), and the Gaussian 82(TM) system (copyright 1983,
 Carnegie Mellon University). Gaussian is a federally registered
 trademark of Gaussian, Inc.
  
 This software contains proprietary and confidential information,
 including trade secrets, belonging to Gaussian, Inc.
  
 This software is provided under written license and may be
 used, copied, transmitted, or stored only in accord with that
 written license.
  
 The following legend is applicable only to US Government
 contracts under FAR:
  
                    RESTRICTED RIGHTS LEGEND
  
 Use, reproduction and disclosure by the US Government is
 subject to restrictions as set forth in subparagraphs (a)
 and (c) of the Commercial Computer Software - Restricted
 Rights clause in FAR 52.227-19.
  
 Gaussian, Inc.
 340 Quinnipiac St., Bldg. 40, Wallingford CT 06492
  
  
 ---------------------------------------------------------------
 Warning -- This program may not be used in any manner that
 competes with the business of Gaussian, Inc. or will provide
 assistance to any competitor of Gaussian, Inc.  The licensee
 of this program is prohibited from giving any competitor of
 Gaussian, Inc. access to this program.  By using this program,
 the user acknowledges that Gaussian, Inc. is engaged in the
 business of creating and licensing software in the field of
 computational chemistry and represents and warrants to the
 licensee that it is not a competitor of Gaussian, Inc. and that
 it will not use this program in any manner prohibited above.
 ---------------------------------------------------------------
  

 Cite this work as:
 Gaussian 09, Revision A.02,
 M. J. Frisch, G. W. Trucks, H. B. Schlegel, G. E. Scuseria, 
 M. A. Robb, J. R. Cheeseman, G. Scalmani, V. Barone, B. Mennucci, 
 G. A. Petersson, H. Nakatsuji, M. Caricato, X. Li, H. P. Hratchian, 
 A. F. Izmaylov, J. Bloino, G. Zheng, J. L. Sonnenberg, M. Hada, 
 M. Ehara, K. Toyota, R. Fukuda, J. Hasegawa, M. Ishida, T. Nakajima, 
 Y. Honda, O. Kitao, H. Nakai, T. Vreven, J. A. Montgomery, Jr., 
 J. E. Peralta, F. Ogliaro, M. Bearpark, J. J. Heyd, E. Brothers, 
 K. N. Kudin, V. N. Staroverov, R. Kobayashi, J. Normand, 
 K. Raghavachari, A. Rendell, J. C. Burant, S. S. Iyengar, J. Tomasi, 
 M. Cossi, N. Rega, J. M. Millam, M. Klene, J. E. Knox, J. B. Cross, 
 V. Bakken, C. Adamo, J. Jaramillo, R. Gomperts, R. E. Stratmann, 
 O. Yazyev, A. J. Austin, R. Cammi, C. Pomelli, J. W. Ochterski, 
 R. L. Martin, K. Morokuma, V. G. Zakrzewski, G. A. Voth, 
 P. Salvador, J. J. Dannenberg, S. Dapprich, A. D. Daniels, 
 O. Farkas, J. B. Foresman, J. V. Ortiz, J. Cioslowski, 
 and D. J. Fox, Gaussian, Inc., Wallingford CT, 2009.
 
 ******************************************
 Gaussian 09:  EM64L-G09RevA.02 11-Jun-2009
                15-Jun-2010 
 ******************************************
 %Chk=12-ethanediol-esp.chk
 %Mem=778484KB
 %Nproc=1
 Will use up to    1 processors via shared memory.
 --------------------------------------------------
 #MP2/Aug-CC-pVTZ Sp Polar Density=MP2 MaxDisk=66GB
 --------------------------------------------------
 1/38=1/1;
 2/12=2,17=6,18=5,40=1/2;
 3/5=16,6=1,7=10,11=9,16=1,25=1,30=1,71=2/1,2,3;
 4//1;
 5/5=2,38=5,98=1/2;
 8/6=4,8=1,10=1,19=10,30=-1/1;
 9/15=5,16=-3/6;
 10/6=2,13=10,21=1/2;
 8/6=4,8=1,10=1,19=10,30=-1/11,4;
 10/5=1,20=4/2;
 11/12=2,14=10,16=1,17=2,28=-2,32=3,42=3/12;
 6/7=2,8=2,9=2,10=2,22=2/1;
 99/5=1,9=1/99;
 --------------------------------------------------------------
 12-ethanediol Gaussian SP Calculation on node12.bme.utexas.edu
 --------------------------------------------------------------
 Symbolic Z-matrix:
 Charge =  0 Multiplicity = 1
 C                     0.28046   0.70125   0.52326 
 C                    -0.28046  -0.70125   0.52326 
 H                     0.20964   2.20916  -0.69075 
 H                    -0.20964  -2.20916  -0.69075 
 O                    -0.28046   1.41305  -0.54478 
 O                     0.28046  -1.41305  -0.54478 
 H                     0.03991   1.17767   1.47271 
 H                     1.36225   0.64411   0.43672 
 H                    -0.03991  -1.17767   1.47271 
 H                    -1.36225  -0.64411   0.43672 
 
                          Input orientation:                          
 ---------------------------------------------------------------------
 Center     Atomic      Atomic             Coordinates (Angstroms)
 Number     Number       Type             X           Y           Z
 ---------------------------------------------------------------------
      1          6           0        0.280458    0.701252    0.523262
      2          6           0       -0.280458   -0.701252    0.523262
      3          1           0        0.209636    2.209163   -0.690751
      4          1           0       -0.209636   -2.209163   -0.690751
      5          8           0       -0.280458    1.413052   -0.544781
      6          8           0        0.280458   -1.413052   -0.544781
      7          1           0        0.039906    1.177670    1.472709
      8          1           0        1.362249    0.644112    0.436718
      9          1           0       -0.039906   -1.177670    1.472709
     10          1           0       -1.362249   -0.644112    0.436718
 ---------------------------------------------------------------------
                    Distance matrix (angstroms):
                    1          2          3          4          5
     1  C    0.000000
     2  C    1.510511   0.000000
     3  H    1.937173   3.191322   0.000000
     4  H    3.191322   1.937173   4.438175   0.000000
     5  O    1.400715   2.368754   0.946199   3.625847   0.000000
     6  O    2.368754   1.400715   3.625847   0.946199   2.881231
     7  H    1.089169   2.129420   2.402779   4.026595   2.056284
     8  H    1.086750   2.125084   2.247018   3.447200   2.062303
     9  H    2.129420   1.089169   4.026595   2.402779   3.292411
    10  H    2.125084   1.086750   3.447200   2.247018   2.523001
                    6          7          8          9         10
     6  O    0.000000
     7  H    3.292411   0.000000
     8  H    2.523001   1.762541   0.000000
     9  H    2.056284   2.356692   2.521548   0.000000
    10  H    2.062303   2.521548   3.013704   1.762541   0.000000
 Stoichiometry    C2H6O2
 Framework group  C2[X(C2H6O2)]
 Deg. of freedom    13
 Full point group                 C2      NOp   2
 Largest Abelian subgroup         C2      NOp   2
 Largest concise Abelian subgroup C2      NOp   2
                         Standard orientation:                         
 ---------------------------------------------------------------------
 Center     Atomic      Atomic             Coordinates (Angstroms)
 Number     Number       Type             X           Y           Z
 ---------------------------------------------------------------------
      1          6           0        0.280458    0.701252    0.523262
      2          6           0       -0.280458   -0.701252    0.523262
      3          1           0        0.209636    2.209163   -0.690751
      4          1           0       -0.209636   -2.209163   -0.690751
      5          8           0       -0.280458    1.413052   -0.544781
      6          8           0        0.280458   -1.413052   -0.544781
      7          1           0        0.039906    1.177670    1.472709
      8          1           0        1.362249    0.644112    0.436718
      9          1           0       -0.039906   -1.177670    1.472709
     10          1           0       -1.362249   -0.644112    0.436718
 ---------------------------------------------------------------------
 Rotational constants (GHZ):     17.0748510      5.1896598      4.5462905
 Standard basis: Aug-CC-pVTZ (5D, 7F)
 There are   161 symmetry adapted basis functions of A   symmetry.
 There are   161 symmetry adapted basis functions of B   symmetry.
 Integral buffers will be    131072 words long.
 Raffenetti 1 integral format.
 Two-electron integral symmetry is turned on.
   322 basis functions,   450 primitive gaussians,   370 cartesian basis functions
    17 alpha electrons       17 beta electrons
       nuclear repulsion energy       133.4469923616 Hartrees.
 NAtoms=   10 NActive=   10 NUniq=    5 SFac= 3.00D+00 NAtFMM=   80 NAOKFM=F Big=F
 One-electron integrals computed using PRISM.
 NBasis=   322 RedAO= T  NBF=   161   161
 NBsUse=   322 1.00D-06 NBFU=   161   161
 Harris functional with IExCor=  205 diagonalized for initial guess.
 ExpMin= 2.53D-02 ExpMax= 1.53D+04 ExpMxC= 5.22D+02 IAcc=3 IRadAn=         0 AccDes= 0.00D+00
 HarFok:  IExCor=  205 AccDes= 0.00D+00 IRadAn=         0 IDoV= 1
 ScaDFX=  1.000000  1.000000  1.000000  1.000000
 FoFCou: FMM=F IPFlag=           0 FMFlag=      100000 FMFlg1=           0
         NFxFlg=           0 DoJE=T BraDBF=F KetDBF=T FulRan=T
         Omega=  0.000000  0.000000  1.000000  0.000000  0.000000 ICntrl=     500 IOpCl=  0
         NMat0=    1 NMatS0=    1 NMatT0=    0 NMatD0=    1 NMtDS0=    0 NMtDT0=    0
         I1Cent=           4 NGrid=           0.
 Petite list used in FoFCou.
 Initial guess orbital symmetries:
       Occupied  (A) (B) (A) (B) (A) (B) (A) (B) (A) (B) (A) (B)
                 (A) (B) (A) (A) (B)
       Virtual   (A) (B) (A) (B) (A) (B) (B) (A) (B) (A) (A) (A)
                 (B) (B) (A) (B) (B) (A) (A) (B) (B) (A) (B) (B)
                 (A) (A) (B) (A) (B) (A) (A) (B) (A) (A) (B) (A)
                 (B) (A) (B) (B) (A) (B) (A) (B) (A) (B) (B) (A)
                 (B) (A) (B) (A) (B) (A) (B) (A) (B) (A) (B) (A)
                 (A) (A) (B) (B) (A) (B) (A) (B) (A) (A) (B) (B)
                 (A) (B) (B) (A) (B) (A) (B) (A) (B) (A) (A) (B)
                 (A) (B) (B) (A) (B) (A) (B) (A) (A) (B) (B) (A)
                 (A) (B) (A) (B) (B) (A) (B) (A) (A) (B) (B) (A)
                 (A) (A) (B) (B) (A) (B) (A) (B) (B) (A) (B) (B)
                 (A) (A) (B) (A) (B) (A) (B) (A) (B) (A) (A) (B)
                 (A) (A) (B) (B) (A) (B) (B) (A) (B) (A) (B) (A)
                 (B) (A) (B) (A) (B) (A) (B) (A) (B) (A) (B) (A)
                 (B) (A) (B) (A) (A) (B) (B) (A) (B) (A) (B) (A)
                 (B) (A) (A) (B) (A) (B) (B) (A) (B) (A) (A) (B)
                 (B) (B) (A) (B) (B) (A) (A) (A) (B) (A) (B) (A)
                 (B) (A) (A) (B) (A) (B) (A) (B) (B) (A) (B) (A)
                 (B) (A) (B) (A) (A) (A) (B) (B) (A) (B) (B) (A)
                 (B) (A) (B) (A) (B) (A) (A) (B) (B) (B) (A) (A)
                 (B) (A) (A) (B) (B) (A) (A) (B) (B) (A) (B) (A)
                 (B) (A) (B) (B) (A) (A) (B) (A) (B) (A) (B) (A)
                 (A) (B) (A) (B) (B) (A) (A) (B) (B) (A) (A) (B)
                 (A) (B) (A) (B) (B) (A) (B) (A) (B) (B) (A) (B)
                 (A) (A) (B) (B) (A) (B) (A) (B) (A) (A) (B) (B)
                 (A) (A) (B) (A) (B) (A) (B) (A) (B) (B) (A) (A)
                 (B) (B) (A) (A) (B)
 The electronic state of the initial guess is 1-A.
 Requested convergence on RMS density matrix=1.00D-08 within 128 cycles.
 Requested convergence on MAX density matrix=1.00D-06.
 Requested convergence on             energy=1.00D-06.
 No special actions if energy rises.
 Initial convergence to 1.0D-05 achieved.  Increase integral accuracy.
 SCF Done:  E(RHF) =  -229.029284865     A.U. after   11 cycles
             Convg  =    0.8456D-08             -V/T =  2.0007
 ExpMin= 2.53D-02 ExpMax= 1.53D+04 ExpMxC= 5.22D+02 IAcc=3 IRadAn=         5 AccDes= 0.00D+00
 HarFok:  IExCor=  205 AccDes= 0.00D+00 IRadAn=         5 IDoV=-2
 ScaDFX=  1.000000  1.000000  1.000000  1.000000
 Range of M.O.s used for correlation:     5   322
 NBasis=   322 NAE=    17 NBE=    17 NFC=     4 NFV=     0
 NROrb=    318 NOA=    13 NOB=    13 NVA=   305 NVB=   305

 **** Warning!!: The largest alpha MO coefficient is  0.56083377D+02

 Disk-based method using ON**2 memory for 13 occupieds at a time.
 Permanent disk used for amplitudes=    33189185 words.
 Estimated scratch disk usage=   603268332 words.
 Actual    scratch disk usage=   582887660 words.
 JobTyp=1 Pass  1:  I=   5 to  17 NPSUse=  1 ParTrn=F ParDer=F DoDerP=T.
 Spin components of T(2) and E(2):
     alpha-alpha T2 =       0.2763990829D-01 E2=     -0.1017747965D+00
     alpha-beta  T2 =       0.1632485910D+00 E2=     -0.6440844630D+00
     beta-beta   T2 =       0.2763990829D-01 E2=     -0.1017747965D+00
 ANorm=    0.1103869742D+01
 E2 =    -0.8476340561D+00 EUMP2 =    -0.22987691892128D+03
          Differentiating once with respect to electric field.
                with respect to dipole field.
          Electric field/nuclear overlap derivatives assumed to be zero.
          There are     3 degrees of freedom in the 1st order CPHF.  IDoFFX=0.
      3 vectors produced by pass  0 Test12= 1.73D-13 3.33D-08 XBig12= 7.87D+00 7.57D-01.
 AX will form     3 AO Fock derivatives at one time.
      3 vectors produced by pass  1 Test12= 1.73D-13 3.33D-08 XBig12= 5.03D-01 1.24D-01.
      3 vectors produced by pass  2 Test12= 1.73D-13 3.33D-08 XBig12= 4.99D-02 2.89D-02.
      3 vectors produced by pass  3 Test12= 1.73D-13 3.33D-08 XBig12= 3.64D-03 9.25D-03.
      3 vectors produced by pass  4 Test12= 1.73D-13 3.33D-08 XBig12= 1.29D-04 1.57D-03.
      3 vectors produced by pass  5 Test12= 1.73D-13 3.33D-08 XBig12= 3.52D-06 2.72D-04.
      3 vectors produced by pass  6 Test12= 1.73D-13 3.33D-08 XBig12= 1.50D-07 6.94D-05.
      3 vectors produced by pass  7 Test12= 1.73D-13 3.33D-08 XBig12= 1.36D-08 1.74D-05.
      3 vectors produced by pass  8 Test12= 1.73D-13 3.33D-08 XBig12= 1.03D-09 5.41D-06.
      3 vectors produced by pass  9 Test12= 1.73D-13 3.33D-08 XBig12= 3.75D-11 9.26D-07.
      1 vectors produced by pass 10 Test12= 1.73D-13 3.33D-08 XBig12= 1.68D-12 1.81D-07.
 Inverted reduced A of dimension    31 with in-core refinement.
 End of Minotr Frequency-dependent properties file   721 does not exist.
 End of Minotr Frequency-dependent properties file   722 does not exist.
 MDV=    99645952.
 Form MO integral derivatives with frozen-active canonical formalism.
 Discarding MO integrals.
 Reordered first order wavefunction length =     53768450
 WUsed=     41068008  WInt=        576302  WEnd=     582494208
 Dk804=    482334625. Dk1111=           0. Dk1112=  1473888100.
 MaxDsk=  8858370048  LAFull=    53768450  DskLim=  8858370048.
 NUsed= 3040233510. 1923129510. 1313890593. 1075213922.  879253690.  748613535.
 In DefCFB: NBatch=  1 ICI= 17 ICA=305 LFMax= 34
            Large arrays: LIAPS=   617740900 LIARS=   105514750 words.
 Semi-Direct transformation.
 ModeAB=           4 MOrb=            17 LenV=      97069852
 LASXX=    274280261 LTotXX=   274280261 LenRXX=   551078970
 LTotAB=   276798709 MaxLAS=   191912966 LenRXY=           0
 NonZer=   825359231 LenScr=  1242899456 LnRSAI=   191912966
 LnScr1=   290222080 LExtra=    49865968 Total=   2325979440
 MaxDsk=  8858370048 SrtSym=           T ITran=            4
 JobTyp=0 Pass  1:  I=   1 to  17.
 Spin components of T(2) and E(2):
     alpha-alpha T2 =       0.2763990829D-01 E2=     -0.1017747965D+00
     alpha-beta  T2 =       0.1632485910D+00 E2=     -0.6440844630D+00
     beta-beta   T2 =       0.2763990829D-01 E2=     -0.1017747965D+00
 ANorm=    0.1561107560D+01
 E2 =    -0.8476340561D+00 EUMP2 =    -0.22987691892128D+03
          IDoAtm=1111111111
          Differentiating once with respect to electric field.
                with respect to dipole field.
          Differentiating once with respect to nuclear coordinates.
          There are     1 degrees of freedom in the 1st order CPHF.  IDoFFX=0.
 LinEq1:  Iter=  0 NonCon=     1 RMS=2.55D-03 Max=3.00D-02
 LinEq1:  Iter=  1 NonCon=     1 RMS=5.27D-04 Max=5.91D-03
 LinEq1:  Iter=  2 NonCon=     1 RMS=1.75D-04 Max=2.04D-03
 LinEq1:  Iter=  3 NonCon=     1 RMS=4.31D-05 Max=3.90D-04
 LinEq1:  Iter=  4 NonCon=     1 RMS=1.86D-05 Max=2.64D-04
 LinEq1:  Iter=  5 NonCon=     1 RMS=4.47D-06 Max=6.36D-05
 LinEq1:  Iter=  6 NonCon=     1 RMS=8.61D-07 Max=7.40D-06
 LinEq1:  Iter=  7 NonCon=     1 RMS=1.51D-07 Max=1.91D-06
 LinEq1:  Iter=  8 NonCon=     1 RMS=2.74D-08 Max=2.46D-07
 LinEq1:  Iter=  9 NonCon=     1 RMS=5.63D-09 Max=6.29D-08
 LinEq1:  Iter= 10 NonCon=     1 RMS=9.26D-10 Max=9.29D-09
 LinEq1:  Iter= 11 NonCon=     1 RMS=1.55D-10 Max=1.34D-09
 LinEq1:  Iter= 12 NonCon=     0 RMS=2.84D-11 Max=3.73D-10
 Linear equations converged to 1.000D-10 1.000D-09 after    12 iterations.
 End of Minotr Frequency-dependent properties file   721 does not exist.
 End of Minotr Frequency-dependent properties file   722 does not exist.
 Would need an additional  4636718532 words for in-memory AO integral storage.
 DD1Dir will call FoFDir   1 times, MxPair=       306
 NAB=   153 NAA=     0 NBB=     0 NumPrc=  1.
 Petite list used in FoFDir.
 MinBra= 0 MaxBra= 3 Meth= 1.
 IRaf=       0 NMat= 306 IRICut=     382 DoRegI=T DoRafI=T ISym2E=-1 JSym2E=1.
 Discarding MO integrals.

 **********************************************************************

            Population analysis using the MP2 density.

 **********************************************************************

 Orbital symmetries:
       Occupied  (B) (A) (A) (B) (A) (B) (A) (B) (B) (A) (A) (B)
                 (A) (B) (A) (A) (B)
       Virtual   (A) (B) (A) (B) (B) (A) (A) (B) (B) (A) (A) (A)
                 (B) (B) (A) (B) (B) (A) (A) (B) (B) (B) (A) (A)
                 (A) (B) (B) (A) (A) (B) (A) (A) (B) (A) (B) (A)
                 (B) (B) (A) (B) (B) (A) (A) (B) (A) (B) (B) (A)
                 (A) (B) (A) (B) (B) (A) (B) (A) (B) (A) (B) (A)
                 (A) (A) (B) (B) (A) (B) (A) (B) (A) (A) (B) (B)
                 (B) (A) (A) (B) (A) (B) (B) (B) (A) (B) (A) (B)
                 (A) (A) (B) (A) (A) (B) (A) (B) (B) (A) (A) (A)
                 (B) (A) (B) (B) (A) (B) (A) (B) (B) (A) (B) (A)
                 (A) (B) (A) (B) (A) (B) (A) (B) (B) (A) (B) (A)
                 (B) (A) (B) (A) (A) (B) (A) (B) (B) (A) (B) (A)
                 (A) (A) (B) (B) (B) (A) (B) (B) (A) (A) (B) (A)
                 (B) (A) (B) (A) (B) (A) (B) (A) (B) (A) (B) (A)
                 (B) (A) (B) (A) (B) (A) (B) (A) (B) (B) (A) (B)
                 (A) (A) (B) (A) (B) (B) (A) (B) (A) (A) (A) (B)
                 (B) (B) (A) (B) (B) (A) (A) (A) (B) (A) (B) (A)
                 (A) (B) (B) (A) (A) (A) (B) (B) (B) (A) (B) (A)
                 (B) (A) (B) (A) (A) (B) (A) (B) (A) (B) (B) (A)
                 (A) (B) (A) (B) (B) (A) (B) (A) (B) (B) (A) (A)
                 (B) (A) (B) (B) (A) (A) (A) (B) (B) (A) (B) (A)
                 (B) (A) (B) (A) (B) (A) (B) (A) (B) (A) (B) (A)
                 (A) (B) (A) (B) (B) (A) (A) (B) (A) (B) (A) (B)
                 (B) (A) (A) (B) (B) (A) (B) (A) (B) (B) (A) (A)
                 (B) (A) (B) (A) (B) (B) (A) (B) (A) (B) (A) (B)
                 (A) (B) (A) (A) (B) (A) (B) (A) (B) (B) (A) (A)
                 (B) (B) (A) (A) (B)
 The electronic state is 1-A.
 Alpha  occ. eigenvalues --  -20.55353 -20.55353 -11.27148 -11.27081  -1.37767
 Alpha  occ. eigenvalues --   -1.35731  -1.00454  -0.83332  -0.71749  -0.71519
 Alpha  occ. eigenvalues --   -0.61297  -0.60755  -0.59509  -0.53338  -0.47647
 Alpha  occ. eigenvalues --   -0.44806  -0.44688
 Alpha virt. eigenvalues --    0.02933   0.03610   0.04243   0.04422   0.06117
 Alpha virt. eigenvalues --    0.06427   0.09765   0.11126   0.11460   0.11741
 Alpha virt. eigenvalues --    0.13440   0.14098   0.14526   0.16829   0.18650
 Alpha virt. eigenvalues --    0.18922   0.19427   0.19873   0.21039   0.21663
 Alpha virt. eigenvalues --    0.26107   0.26619   0.27319   0.28262   0.29941
 Alpha virt. eigenvalues --    0.29970   0.31319   0.32376   0.32654   0.32694
 Alpha virt. eigenvalues --    0.34350   0.36057   0.36507   0.37179   0.37601
 Alpha virt. eigenvalues --    0.38221   0.40295   0.41369   0.41882   0.43652
 Alpha virt. eigenvalues --    0.44283   0.44978   0.45978   0.46164   0.48186
 Alpha virt. eigenvalues --    0.48758   0.49235   0.49331   0.50654   0.51039
 Alpha virt. eigenvalues --    0.52599   0.52609   0.54570   0.56903   0.57659
 Alpha virt. eigenvalues --    0.59676   0.60419   0.60904   0.63566   0.68238
 Alpha virt. eigenvalues --    0.70619   0.73468   0.74074   0.76381   0.76984
 Alpha virt. eigenvalues --    0.78273   0.79626   0.80375   0.80774   0.83502
 Alpha virt. eigenvalues --    0.84395   0.85690   0.88442   0.88864   0.89321
 Alpha virt. eigenvalues --    0.89344   0.92621   0.93492   0.94866   0.97362
 Alpha virt. eigenvalues --    0.97454   0.99817   1.00347   1.01395   1.01735
 Alpha virt. eigenvalues --    1.03243   1.03538   1.04241   1.05819   1.05855
 Alpha virt. eigenvalues --    1.07681   1.07940   1.08927   1.09893   1.10776
 Alpha virt. eigenvalues --    1.13390   1.14205   1.16253   1.16688   1.19074
 Alpha virt. eigenvalues --    1.20824   1.20834   1.22268   1.22910   1.26083
 Alpha virt. eigenvalues --    1.27408   1.27933   1.28640   1.35385   1.36178
 Alpha virt. eigenvalues --    1.38052   1.39403   1.40860   1.42175   1.43843
 Alpha virt. eigenvalues --    1.46357   1.49864   1.51774   1.53653   1.54691
 Alpha virt. eigenvalues --    1.55088   1.56932   1.59150   1.60527   1.62831
 Alpha virt. eigenvalues --    1.63193   1.64017   1.66323   1.68237   1.69132
 Alpha virt. eigenvalues --    1.71530   1.71689   1.74021   1.78061   1.78264
 Alpha virt. eigenvalues --    1.79120   1.81736   1.82789   1.87323   1.88987
 Alpha virt. eigenvalues --    1.89049   1.93012   1.94639   1.99296   2.00522
 Alpha virt. eigenvalues --    2.02184   2.05297   2.11356   2.11776   2.11965
 Alpha virt. eigenvalues --    2.12843   2.16958   2.18574   2.21670   2.21808
 Alpha virt. eigenvalues --    2.30773   2.31229   2.37941   2.41713   2.45715
 Alpha virt. eigenvalues --    2.46671   2.47805   2.51744   2.56569   2.58682
 Alpha virt. eigenvalues --    2.59400   2.60351   2.70364   2.70874   2.74904
 Alpha virt. eigenvalues --    2.82222   2.82590   2.83994   2.85654   2.85991
 Alpha virt. eigenvalues --    2.89774   2.91152   2.97640   2.99599   3.00849
 Alpha virt. eigenvalues --    3.02658   3.06455   3.06716   3.11224   3.14561
 Alpha virt. eigenvalues --    3.16632   3.23322   3.27980   3.37912   3.46888
 Alpha virt. eigenvalues --    3.49700   3.49992   3.60838   3.61150   3.63944
 Alpha virt. eigenvalues --    3.64456   3.66538   3.73843   3.74335   3.80567
 Alpha virt. eigenvalues --    3.84108   3.87541   3.92320   3.93391   3.95959
 Alpha virt. eigenvalues --    3.99750   4.00284   4.02455   4.07477   4.07774
 Alpha virt. eigenvalues --    4.09270   4.12455   4.13746   4.14231   4.17238
 Alpha virt. eigenvalues --    4.25864   4.29185   4.29709   4.32664   4.33145
 Alpha virt. eigenvalues --    4.36508   4.39762   4.41696   4.44529   4.45457
 Alpha virt. eigenvalues --    4.54349   4.54405   4.55375   4.61463   4.61777
 Alpha virt. eigenvalues --    4.62744   4.66384   4.68096   4.73166   4.78650
 Alpha virt. eigenvalues --    4.83625   4.87059   4.87245   4.90936   4.97816
 Alpha virt. eigenvalues --    4.98235   5.02725   5.08014   5.11106   5.12006
 Alpha virt. eigenvalues --    5.13862   5.17595   5.23936   5.25039   5.28404
 Alpha virt. eigenvalues --    5.30963   5.35679   5.36908   5.42842   5.43490
 Alpha virt. eigenvalues --    5.46638   5.53806   5.54912   5.58524   5.61768
 Alpha virt. eigenvalues --    5.64269   5.68338   5.81102   5.83032   5.90384
 Alpha virt. eigenvalues --    5.95233   6.01116   6.04265   6.11154   6.17197
 Alpha virt. eigenvalues --    6.23500   6.25775   6.39695   6.67064   6.71236
 Alpha virt. eigenvalues --    6.76185   6.76318   6.90324   6.91175   6.94109
 Alpha virt. eigenvalues --    6.94900   7.11282   7.12351   7.33584   7.35250
 Alpha virt. eigenvalues --    7.35988   7.39700   7.48132   7.48976   7.55750
 Alpha virt. eigenvalues --    7.56533   7.59650   7.66317   7.78852   7.86771
 Alpha virt. eigenvalues --    7.92037   7.98460   8.23177   8.27852   8.59442
 Alpha virt. eigenvalues --    8.68122  16.05129  16.22630  18.38306  18.38532
          Condensed to atoms (all electrons):
              1          2          3          4          5          6
     1  C    6.593694  -0.434174  -0.009612   0.018307  -0.073247  -0.031312
     2  C   -0.434174   6.593694   0.018307  -0.009612  -0.031312  -0.073247
     3  H   -0.009612   0.018307   0.771650   0.000227   0.087094  -0.000609
     4  H    0.018307  -0.009612   0.000227   0.771650  -0.000609   0.087094
     5  O   -0.073247  -0.031312   0.087094  -0.000609   8.469555  -0.015393
     6  O   -0.031312  -0.073247  -0.000609   0.087094  -0.015393   8.469555
     7  H    0.096372   0.030583   0.003333   0.002231   0.021961   0.000376
     8  H    0.119727  -0.012735   0.001790  -0.004221  -0.005312   0.006934
     9  H    0.030583   0.096372   0.002231   0.003333   0.000376   0.021961
    10  H   -0.012735   0.119727  -0.004221   0.001790   0.006934  -0.005312
              7          8          9         10
     1  C    0.096372   0.119727   0.030583  -0.012735
     2  C    0.030583  -0.012735   0.096372   0.119727
     3  H    0.003333   0.001790   0.002231  -0.004221
     4  H    0.002231  -0.004221   0.003333   0.001790
     5  O    0.021961  -0.005312   0.000376   0.006934
     6  O    0.000376   0.006934   0.021961  -0.005312
     7  H    0.637146  -0.057383  -0.009695  -0.013177
     8  H   -0.057383   0.598478  -0.013177   0.026316
     9  H   -0.009695  -0.013177   0.637146  -0.057383
    10  H   -0.013177   0.026316  -0.057383   0.598478
 Mulliken atomic charges:
              1
     1  C   -0.297603
     2  C   -0.297603
     3  H    0.129810
     4  H    0.129810
     5  O   -0.460046
     6  O   -0.460046
     7  H    0.288255
     8  H    0.339584
     9  H    0.288255
    10  H    0.339584
 Sum of Mulliken atomic charges =   0.00000
 Mulliken charges with hydrogens summed into heavy atoms:
              1
     1  C    0.330236
     2  C    0.330236
     5  O   -0.330236
     6  O   -0.330236
 Sum of Mulliken charges with hydrogens summed into heavy atoms =   0.00000
 APT atomic charges:
              1
     1  C   -1.457540
     2  C    0.000000
     3  H    0.000000
     4  H    0.000339
     5  O    0.000000
     6  O   -0.000558
     7  H    0.000589
     8  H    0.000000
     9  H    0.000468
    10  H    0.000000
 Sum of APT charges=  -1.45670
 APT Atomic charges with hydrogens summed into heavy atoms:
              1
     1  C   -1.456951
     2  C    0.000468
     3  H    0.000000
     4  H    0.000000
     5  O    0.000000
     6  O   -0.000219
     7  H    0.000000
     8  H    0.000000
     9  H    0.000000
    10  H    0.000000
 Sum of APT charges=  -1.45670
 Electronic spatial extent (au):  <R**2>=            306.1831
 Charge=              0.0000 electrons
 Dipole moment (field-independent basis, Debye):
    X=              0.0000    Y=              0.0000    Z=              1.5340  Tot=              1.5340
 Quadrupole moment (field-independent basis, Debye-Ang):
   XX=            -25.9780   YY=            -18.9866   ZZ=            -26.1925
   XY=              4.8977   XZ=              0.0000   YZ=              0.0000
 Traceless Quadrupole moment (field-independent basis, Debye-Ang):
   XX=             -2.2589   YY=              4.7324   ZZ=             -2.4735
   XY=              4.8977   XZ=              0.0000   YZ=              0.0000
 Octapole moment (field-independent basis, Debye-Ang**2):
  XXX=              0.0000  YYY=              0.0000  ZZZ=             -2.4930  XYY=              0.0000
  XXY=              0.0000  XXZ=             -0.9796  XZZ=              0.0000  YZZ=              0.0000
  YYZ=             -7.0869  XYZ=             -2.9926
 Hexadecapole moment (field-independent basis, Debye-Ang**3):
 XXXX=            -51.7951 YYYY=           -175.4376 ZZZZ=            -89.1412 XXXY=              4.9854
 XXXZ=              0.0000 YYYX=             19.5840 YYYZ=              0.0000 ZZZX=              0.0000
 ZZZY=              0.0000 XXYY=            -51.3560 XXZZ=            -24.6030 YYZZ=            -47.6739
 XXYZ=              0.0000 YYXZ=              0.0000 ZZXY=              1.3102
 N-N= 1.334469923616D+02 E-N=-8.073085399961D+02  KE= 2.298198352343D+02
 Symmetry A    KE= 1.159881821899D+02
 Symmetry B    KE= 1.138316530444D+02
  Exact polarizability:  34.335   0.682  40.264   0.000   0.000  37.026
 Approx polarizability:  29.134   0.785  29.917   0.000   0.000  29.653
 1\1\GINC-NODE12\SP\RMP2-FC\Aug-CC-pVTZ\C2H6O2\WUCH\16-Jun-2010\0\\#MP2
 /Aug-CC-pVTZ Sp Polar Density=MP2 MaxDisk=66GB\\12-ethanediol Gaussian
  SP Calculation on node12.bme.utexas.edu\\0,1\C,0,0.280458,0.701252,0.
 523262\C,0,-0.280458,-0.701252,0.523262\H,0,0.209636,2.209163,-0.69075
 1\H,0,-0.209636,-2.209163,-0.690751\O,0,-0.280458,1.413052,-0.544781\O
 ,0,0.280458,-1.413052,-0.544781\H,0,0.039906,1.17767,1.472709\H,0,1.36
 2249,0.644112,0.436718\H,0,-0.039906,-1.17767,1.472709\H,0,-1.362249,-
 0.644112,0.436718\\Version=EM64L-G09RevA.02\State=1-A\HF=-229.0292849\
 MP2=-229.8769189\RMSD=8.456e-09\Dipole=0.,0.,0.603513\Polar=34.3349877
 ,0.6817976,40.2635386,0.,0.,37.0263584\Quadrupole=-1.6794605,3.518439,
 -1.8389785,3.6412914,0.,0.\PG=C02 [X(C2H6O2)]\\@


 ... THE UNIVERSE IS NOT ONLY QUEERER THAN WE SUPPOSE,
 BUT QUEERER THAN WE CAN SUPPOSE ... 

                                   -- J. B. S. HALDANE
 Job cpu time:  0 days 14 hours 25 minutes 56.1 seconds.
 File lengths (MBytes):  RWF=  19844 Int=      0 D2E=      0 Chk=      7 Scr=      1
 Normal termination of Gaussian 09 at Wed Jun 16 15:08:47 2010.
