 Entering Gaussian System, Link 0=/opt/g03/bin-pgi/g03
 Input=12-ethanediol-pop.com
 Output=12-ethanediol-pop.log
 Initial command:
 /opt/g03/bin-pgi/l1.exe /scratch/Gau-19476.inp -scrdir=/scratch/
 Entering Link 1 = /opt/g03/bin-pgi/l1.exe PID=     19477.
  
 Copyright (c) 1988,1990,1992,1993,1995,1998,2003,2004, Gaussian, Inc.
                  All Rights Reserved.
  
 This is the Gaussian(R) 03 program.  It is based on the
 the Gaussian(R) 98 system (copyright 1998, Gaussian, Inc.),
 the Gaussian(R) 94 system (copyright 1995, Gaussian, Inc.),
 the Gaussian 92(TM) system (copyright 1992, Gaussian, Inc.),
 the Gaussian 90(TM) system (copyright 1990, Gaussian, Inc.),
 the Gaussian 88(TM) system (copyright 1988, Gaussian, Inc.),
 the Gaussian 86(TM) system (copyright 1986, Carnegie Mellon
 University), and the Gaussian 82(TM) system (copyright 1983,
 Carnegie Mellon University). Gaussian is a federally registered
 trademark of Gaussian, Inc.
  
 This software contains proprietary and confidential information,
 including trade secrets, belonging to Gaussian, Inc.
  
 This software is provided under written license and may be
 used, copied, transmitted, or stored only in accord with that
 written license.
  
 The following legend is applicable only to US Government
 contracts under FAR:
  
                    RESTRICTED RIGHTS LEGEND
  
 Use, reproduction and disclosure by the US Government is
 subject to restrictions as set forth in subparagraphs (a)
 and (c) of the Commercial Computer Software - Restricted
 Rights clause in FAR 52.227-19.
  
 Gaussian, Inc.
 340 Quinnipiac St., Bldg. 40, Wallingford CT 06492
  
  
 ---------------------------------------------------------------
 Warning -- This program may not be used in any manner that
 competes with the business of Gaussian, Inc. or will provide
 assistance to any competitor of Gaussian, Inc.  The licensee
 of this program is prohibited from giving any competitor of
 Gaussian, Inc. access to this program.  By using this program,
 the user acknowledges that Gaussian, Inc. is engaged in the
 business of creating and licensing software in the field of
 computational chemistry and represents and warrants to the
 licensee that it is not a competitor of Gaussian, Inc. and that
 it will not use this program in any manner prohibited above.
 ---------------------------------------------------------------
  

 Cite this work as:
 Gaussian 03, Revision C.02,
 M. J. Frisch, G. W. Trucks, H. B. Schlegel, G. E. Scuseria, 
 M. A. Robb, J. R. Cheeseman, J. A. Montgomery, Jr., T. Vreven, 
 K. N. Kudin, J. C. Burant, J. M. Millam, S. S. Iyengar, J. Tomasi, 
 V. Barone, B. Mennucci, M. Cossi, G. Scalmani, N. Rega, 
 G. A. Petersson, H. Nakatsuji, M. Hada, M. Ehara, K. Toyota, 
 R. Fukuda, J. Hasegawa, M. Ishida, T. Nakajima, Y. Honda, O. Kitao, 
 H. Nakai, M. Klene, X. Li, J. E. Knox, H. P. Hratchian, J. B. Cross, 
 C. Adamo, J. Jaramillo, R. Gomperts, R. E. Stratmann, O. Yazyev, 
 A. J. Austin, R. Cammi, C. Pomelli, J. W. Ochterski, P. Y. Ayala, 
 K. Morokuma, G. A. Voth, P. Salvador, J. J. Dannenberg, 
 V. G. Zakrzewski, S. Dapprich, A. D. Daniels, M. C. Strain, 
 O. Farkas, D. K. Malick, A. D. Rabuck, K. Raghavachari, 
 J. B. Foresman, J. V. Ortiz, Q. Cui, A. G. Baboul, S. Clifford, 
 J. Cioslowski, B. B. Stefanov, G. Liu, A. Liashenko, P. Piskorz, 
 I. Komaromi, R. L. Martin, D. J. Fox, T. Keith, M. A. Al-Laham, 
 C. Y. Peng, A. Nanayakkara, M. Challacombe, P. M. W. Gill, 
 B. Johnson, W. Chen, M. W. Wong, C. Gonzalez, and J. A. Pople, 
 Gaussian, Inc., Wallingford CT, 2004.
 
 ******************************************
 Gaussian 03:  IA32L-G03RevC.02 12-Jun-2004
                16-Mar-2010 
 ******************************************
 %Chk=12-ethanediol-pop.chk
 %Mem=700MB
 %Nproc=2
 Will use up to    2 processors via shared memory.
 ---------------------------------------------
 #P HF/6-31G(2d) MaxDisk=96000MW Pop=SaveMixed
 ---------------------------------------------
 1/38=1/1;
 2/17=6,18=5,40=1/2;
 3/5=1,6=6,7=2,11=9,16=1,25=1,30=1/1,2,3;
 4//1;
 5/5=2,32=1,38=5/2;
 6/7=2,8=2,9=2,10=2,28=1,73=3/1,7;
 99/5=1,9=1/99;
 Leave Link    1 at Tue Mar 16 17:00:29 2010, MaxMem=   91750400 cpu:       0.2
 (Enter /opt/g03/bin-pgi/l101.exe)
 -------------------------------------------------------------
 12-ethanediol Gaussian SP Calculation on node2.bme.utexas.edu
 -------------------------------------------------------------
 Symbolic Z-matrix:
 Charge =  0 Multiplicity = 1
 C                     0.28046   0.70125   0.52326 
 C                    -0.28046  -0.70125   0.52326 
 H                     0.20964   2.20916  -0.69075 
 H                    -0.20964  -2.20916  -0.69075 
 O                    -0.28046   1.41305  -0.54478 
 O                     0.28046  -1.41305  -0.54478 
 H                     0.03991   1.17767   1.47271 
 H                     1.36225   0.64411   0.43672 
 H                    -0.03991  -1.17767   1.47271 
 H                    -1.36225  -0.64411   0.43672 
 
                    Isotopes and Nuclear Properties:

  Atom         1           2           3           4           5           6           7           8           9          10
 IAtWgt=          12          12           1           1          16          16           1           1           1           1
 AtmWgt=  12.0000000  12.0000000   1.0078250   1.0078250  15.9949146  15.9949146   1.0078250   1.0078250   1.0078250   1.0078250
 IAtSpn=           0           0           1           1           0           0           1           1           1           1
 AtZEff=   0.0000000   0.0000000   0.0000000   0.0000000   0.0000000   0.0000000   0.0000000   0.0000000   0.0000000   0.0000000
 AtQMom=   0.0000000   0.0000000   0.0000000   0.0000000   0.0000000   0.0000000   0.0000000   0.0000000   0.0000000   0.0000000
 AtGFac=   0.0000000   0.0000000   2.7928460   2.7928460   0.0000000   0.0000000   2.7928460   2.7928460   2.7928460   2.7928460
 Leave Link  101 at Tue Mar 16 17:00:31 2010, MaxMem=   91750400 cpu:       0.1
 (Enter /opt/g03/bin-pgi/l202.exe)
                          Input orientation:                          
 ---------------------------------------------------------------------
 Center     Atomic     Atomic              Coordinates (Angstroms)
 Number     Number      Type              X           Y           Z
 ---------------------------------------------------------------------
    1          6             0        0.280458    0.701252    0.523262
    2          6             0       -0.280458   -0.701252    0.523262
    3          1             0        0.209636    2.209163   -0.690751
    4          1             0       -0.209636   -2.209163   -0.690751
    5          8             0       -0.280458    1.413052   -0.544781
    6          8             0        0.280458   -1.413052   -0.544781
    7          1             0        0.039906    1.177670    1.472709
    8          1             0        1.362249    0.644112    0.436718
    9          1             0       -0.039906   -1.177670    1.472709
   10          1             0       -1.362249   -0.644112    0.436718
 ---------------------------------------------------------------------
                    Distance matrix (angstroms):
                    1          2          3          4          5
     1  C    0.000000
     2  C    1.510511   0.000000
     3  H    1.937173   3.191322   0.000000
     4  H    3.191322   1.937173   4.438175   0.000000
     5  O    1.400715   2.368754   0.946199   3.625847   0.000000
     6  O    2.368754   1.400715   3.625847   0.946199   2.881231
     7  H    1.089169   2.129420   2.402779   4.026595   2.056284
     8  H    1.086750   2.125084   2.247018   3.447200   2.062303
     9  H    2.129420   1.089169   4.026595   2.402779   3.292411
    10  H    2.125084   1.086750   3.447200   2.247018   2.523001
                    6          7          8          9         10
     6  O    0.000000
     7  H    3.292411   0.000000
     8  H    2.523001   1.762541   0.000000
     9  H    2.056284   2.356692   2.521548   0.000000
    10  H    2.062303   2.521548   3.013704   1.762541   0.000000
 Stoichiometry    C2H6O2
 Framework group  C2[X(C2H6O2)]
 Deg. of freedom    13
 Full point group                 C2      NOp   2
 Largest Abelian subgroup         C2      NOp   2
 Largest concise Abelian subgroup C2      NOp   2
                         Standard orientation:                         
 ---------------------------------------------------------------------
 Center     Atomic     Atomic              Coordinates (Angstroms)
 Number     Number      Type              X           Y           Z
 ---------------------------------------------------------------------
    1          6             0        0.280458    0.701252    0.523262
    2          6             0       -0.280458   -0.701252    0.523262
    3          1             0        0.209636    2.209163   -0.690751
    4          1             0       -0.209636   -2.209163   -0.690751
    5          8             0       -0.280458    1.413052   -0.544781
    6          8             0        0.280458   -1.413052   -0.544781
    7          1             0        0.039906    1.177670    1.472709
    8          1             0        1.362249    0.644112    0.436718
    9          1             0       -0.039906   -1.177670    1.472709
   10          1             0       -1.362249   -0.644112    0.436718
 ---------------------------------------------------------------------
 Rotational constants (GHZ):     17.0748510      5.1896598      4.5462905
 Leave Link  202 at Tue Mar 16 17:00:32 2010, MaxMem=   91750400 cpu:       0.1
 (Enter /opt/g03/bin-pgi/l301.exe)
 Standard basis: 6-31G(2d) (6D, 7F)
 There are    48 symmetry adapted basis functions of A   symmetry.
 There are    48 symmetry adapted basis functions of B   symmetry.
 Integral buffers will be    262144 words long.
 Raffenetti 1 integral format.
 Two-electron integral symmetry is turned on.
    96 basis functions,   160 primitive gaussians,    96 cartesian basis functions
    17 alpha electrons       17 beta electrons
       nuclear repulsion energy       133.4469922885 Hartrees.
 IExCor=   0 DFT=F Ex=HF Corr=None ExCW=0 ScaHFX=  1.000000
 ScaDFX=  1.000000  1.000000  1.000000  1.000000
 IRadAn=      0 IRanWt=     -1 IRanGd=            0 ICorTp=0
 NAtoms=   10 NActive=   10 NUniq=    5 SFac= 5.66D+00 NAtFMM=   60 Big=F
 Leave Link  301 at Tue Mar 16 17:00:33 2010, MaxMem=   91750400 cpu:       0.1
 (Enter /opt/g03/bin-pgi/l302.exe)
 NPDir=0 NMtPBC=     1 NCelOv=     1 NCel=       1 NClECP=     1 NCelD=      1
         NCelK=      1 NCelE2=     1 NClLst=     1 CellRange=     0.0.
 One-electron integrals computed using PRISM.
 One-electron integral symmetry used in STVInt
 NBasis=    96 RedAO= T  NBF=    48    48
 NBsUse=    96 1.00D-06 NBFU=    48    48
 Leave Link  302 at Tue Mar 16 17:00:35 2010, MaxMem=   91750400 cpu:       0.5
 (Enter /opt/g03/bin-pgi/l303.exe)
 DipDrv:  MaxL=1.
 Leave Link  303 at Tue Mar 16 17:00:36 2010, MaxMem=   91750400 cpu:       0.0
 (Enter /opt/g03/bin-pgi/l401.exe)
 Harris functional with IExCor=  205 diagonalized for initial guess.
 ExpMin= 1.61D-01 ExpMax= 5.48D+03 ExpMxC= 8.25D+02 IAcc=1 IRadAn=         1 AccDes= 1.00D-06
 HarFok:  IExCor= 205 AccDes= 1.00D-06 IRadAn=         1 IDoV=1
 ScaDFX=  1.000000  1.000000  1.000000  1.000000
 Harris En= -229.235464343998    
 Initial guess orbital symmetries:
       Occupied  (A) (B) (A) (B) (A) (B) (A) (B) (B) (A) (A) (B)
                 (A) (B) (A) (A) (B)
       Virtual   (A) (B) (A) (A) (B) (B) (B) (B) (A) (A) (B) (B)
                 (A) (A) (B) (A) (A) (B) (B) (A) (A) (B) (B) (A)
                 (A) (B) (A) (B) (B) (A) (B) (A) (B) (A) (B) (A)
                 (B) (A) (A) (B) (B) (B) (A) (B) (A) (A) (B) (A)
                 (B) (A) (B) (A) (B) (B) (A) (A) (B) (A) (B) (A)
                 (B) (A) (B) (A) (B) (A) (B) (A) (B) (B) (A) (B)
                 (A) (B) (A) (A) (B) (B) (A)
 The electronic state of the initial guess is 1-A.
 Leave Link  401 at Tue Mar 16 17:00:38 2010, MaxMem=   91750400 cpu:       0.4
 (Enter /opt/g03/bin-pgi/l502.exe)
 Warning!  Cutoffs for single-point calculations used.
 Closed shell SCF:
 Requested convergence on RMS density matrix=1.00D-04 within 128 cycles.
 Requested convergence on MAX density matrix=1.00D-02.
 Requested convergence on             energy=5.00D-05.
 No special actions if energy rises.
 Using DIIS extrapolation, IDIIS=  1040.
 Integral symmetry usage will be decided dynamically.
 Keep R1 integrals in memory in canonical form, NReq=    11771314.
 IEnd=     48172 IEndB=     48172 NGot=  91750400 MDV=  80886671
 LenX=  80886671
 Symmetry not used in FoFDir.
 MinBra= 0 MaxBra= 2 Meth= 1.
 IRaf=       0 NMat=   1 IRICut=       1 DoRegI=T DoRafI=F ISym2E= 0 JSym2E=0.

 Cycle   1  Pass 1  IDiag  1:
 E= -228.707375287363    
 DIIS: error= 8.12D-02 at cycle   1 NSaved=   1.
 NSaved= 1 IEnMin= 1 EnMin= -228.707375287363     IErMin= 1 ErrMin= 8.12D-02
 ErrMax= 8.12D-02 EMaxC= 1.00D-01 BMatC= 3.82D-01 BMatP= 3.82D-01
 IDIUse=3 WtCom= 1.88D-01 WtEn= 8.12D-01
 Coeff-Com:  0.100D+01
 Coeff-En:   0.100D+01
 Coeff:      0.100D+01
 Gap=     0.648 Goal=   None    Shift=    0.000
 GapD=    0.648 DampG=2.000 DampE=0.500 DampFc=1.0000 IDamp=-1.
 RMSDP=5.98D-03 MaxDP=9.54D-02              OVMax= 1.09D-01

 Cycle   2  Pass 1  IDiag  1:
 E= -228.879476580501     Delta-E=       -0.172101293138 Rises=F Damp=F
 DIIS: error= 1.93D-02 at cycle   2 NSaved=   2.
 NSaved= 2 IEnMin= 2 EnMin= -228.879476580501     IErMin= 2 ErrMin= 1.93D-02
 ErrMax= 1.93D-02 EMaxC= 1.00D-01 BMatC= 6.44D-02 BMatP= 3.82D-01
 IDIUse=3 WtCom= 8.07D-01 WtEn= 1.93D-01
 Coeff-Com:  0.235D+00 0.765D+00
 Coeff-En:   0.000D+00 0.100D+01
 Coeff:      0.190D+00 0.810D+00
 Gap=     0.693 Goal=   None    Shift=    0.000
 RMSDP=2.43D-03 MaxDP=4.05D-02 DE=-1.72D-01 OVMax= 4.45D-02

 Cycle   3  Pass 1  IDiag  1:
 E= -228.922597127456     Delta-E=       -0.043120546954 Rises=F Damp=F
 DIIS: error= 5.14D-03 at cycle   3 NSaved=   3.
 NSaved= 3 IEnMin= 3 EnMin= -228.922597127456     IErMin= 3 ErrMin= 5.14D-03
 ErrMax= 5.14D-03 EMaxC= 1.00D-01 BMatC= 4.87D-03 BMatP= 6.44D-02
 IDIUse=3 WtCom= 9.49D-01 WtEn= 5.14D-02
 Coeff-Com: -0.185D-01 0.189D+00 0.830D+00
 Coeff-En:   0.000D+00 0.000D+00 0.100D+01
 Coeff:     -0.176D-01 0.179D+00 0.839D+00
 Gap=     0.663 Goal=   None    Shift=    0.000
 RMSDP=4.52D-04 MaxDP=1.09D-02 DE=-4.31D-02 OVMax= 1.04D-02

 Cycle   4  Pass 1  IDiag  1:
 E= -228.926096638665     Delta-E=       -0.003499511209 Rises=F Damp=F
 DIIS: error= 6.96D-04 at cycle   4 NSaved=   4.
 NSaved= 4 IEnMin= 4 EnMin= -228.926096638665     IErMin= 4 ErrMin= 6.96D-04
 ErrMax= 6.96D-04 EMaxC= 1.00D-01 BMatC= 1.00D-04 BMatP= 4.87D-03
 IDIUse=3 WtCom= 9.93D-01 WtEn= 6.96D-03
 Coeff-Com: -0.650D-02 0.184D-01 0.161D+00 0.827D+00
 Coeff-En:   0.000D+00 0.000D+00 0.000D+00 0.100D+01
 Coeff:     -0.646D-02 0.183D-01 0.160D+00 0.829D+00
 Gap=     0.663 Goal=   None    Shift=    0.000
 RMSDP=9.82D-05 MaxDP=1.54D-03 DE=-3.50D-03 OVMax= 2.21D-03

 Cycle   5  Pass 1  IDiag  1:
 E= -228.926191029353     Delta-E=       -0.000094390688 Rises=F Damp=F
 DIIS: error= 2.52D-04 at cycle   5 NSaved=   5.
 NSaved= 5 IEnMin= 5 EnMin= -228.926191029353     IErMin= 5 ErrMin= 2.52D-04
 ErrMax= 2.52D-04 EMaxC= 1.00D-01 BMatC= 8.81D-06 BMatP= 1.00D-04
 IDIUse=3 WtCom= 9.97D-01 WtEn= 2.52D-03
 Coeff-Com:  0.137D-02-0.181D-01-0.732D-01 0.876D-01 0.100D+01
 Coeff-En:   0.000D+00 0.000D+00 0.000D+00 0.000D+00 0.100D+01
 Coeff:      0.136D-02-0.180D-01-0.730D-01 0.874D-01 0.100D+01
 Gap=     0.663 Goal=   None    Shift=    0.000
 RMSDP=3.59D-05 MaxDP=4.19D-04 DE=-9.44D-05 OVMax= 9.90D-04

 Cycle   6  Pass 1  IDiag  1:
 E= -228.926202373664     Delta-E=       -0.000011344311 Rises=F Damp=F
 DIIS: error= 4.18D-05 at cycle   6 NSaved=   6.
 NSaved= 6 IEnMin= 6 EnMin= -228.926202373664     IErMin= 6 ErrMin= 4.18D-05
 ErrMax= 4.18D-05 EMaxC= 1.00D-01 BMatC= 2.04D-07 BMatP= 8.81D-06
 IDIUse=1 WtCom= 1.00D+00 WtEn= 0.00D+00
 Coeff-Com:  0.322D-03-0.152D-02-0.843D-02-0.358D-01-0.256D-01 0.107D+01
 Coeff:      0.322D-03-0.152D-02-0.843D-02-0.358D-01-0.256D-01 0.107D+01
 Gap=     0.663 Goal=   None    Shift=    0.000
 RMSDP=8.77D-06 MaxDP=9.31D-05 DE=-1.13D-05 OVMax= 2.15D-04

 SCF Done:  E(RHF) =  -228.926202374     A.U. after    6 cycles
             Convg  =    0.8772D-05             -V/T =  1.9991
             S**2   =   0.0000
 KE= 2.291256280948D+02 PE=-8.073454158893D+02 EE= 2.158465931324D+02
 Leave Link  502 at Tue Mar 16 17:00:42 2010, MaxMem=   91750400 cpu:       5.4
 (Enter /opt/g03/bin-pgi/l601.exe)
 Copying SCF densities to generalized density rwf, ISCF=0 IROHF=0.

 **********************************************************************

            Population analysis using the SCF density.

 **********************************************************************

 Orbital symmetries:
       Occupied  (B) (A) (A) (B) (A) (B) (A) (B) (B) (A) (A) (B)
                 (A) (B) (A) (A) (B)
       Virtual   (A) (B) (A) (B) (A) (B) (B) (B) (A) (A) (A) (B)
                 (B) (A) (B) (A) (A) (B) (B) (A) (A) (B) (A) (B)
                 (B) (A) (A) (B) (B) (A) (B) (A) (B) (A) (B) (A)
                 (B) (A) (A) (B) (B) (B) (A) (B) (A) (A) (B) (A)
                 (B) (A) (B) (A) (B) (B) (A) (A) (B) (A) (B) (A)
                 (A) (B) (A) (B) (B) (A) (B) (A) (B) (A) (B) (B)
                 (A) (B) (A) (A) (B) (B) (A)
 The electronic state is 1-A.
 Alpha  occ. eigenvalues --  -20.54246 -20.54246 -11.27041 -11.26974  -1.37016
 Alpha  occ. eigenvalues --   -1.34942  -1.00005  -0.82821  -0.71107  -0.70885
 Alpha  occ. eigenvalues --   -0.60675  -0.60122  -0.58783  -0.52594  -0.47062
 Alpha  occ. eigenvalues --   -0.43949  -0.43853
 Alpha virt. eigenvalues --    0.22490   0.23888   0.28230   0.31637   0.33018
 Alpha virt. eigenvalues --    0.33311   0.39120   0.40617   0.41074   0.67161
 Alpha virt. eigenvalues --    0.71099   0.71144   0.72920   0.80710   0.83785
 Alpha virt. eigenvalues --    0.91205   0.96367   0.99625   1.00576   1.02202
 Alpha virt. eigenvalues --    1.03668   1.06287   1.10372   1.11248   1.15793
 Alpha virt. eigenvalues --    1.15938   1.19542   1.20153   1.20733   1.23813
 Alpha virt. eigenvalues --    1.27409   1.30063   1.34462   1.47181   1.56922
 Alpha virt. eigenvalues --    1.59028   1.60353   1.65633   1.77491   1.79261
 Alpha virt. eigenvalues --    1.82459   1.87282   1.90732   1.96598   2.05348
 Alpha virt. eigenvalues --    2.12527   2.20427   2.36697   2.45422   2.61514
 Alpha virt. eigenvalues --    2.68747   3.18422   3.72054   4.49454   4.53078
 Alpha virt. eigenvalues --    4.57787   4.59517   4.61873   4.63798   4.66039
 Alpha virt. eigenvalues --    4.69935   4.70472   4.73774   4.75085   4.83166
 Alpha virt. eigenvalues --    4.85093   4.90135   4.91448   4.94245   5.05784
 Alpha virt. eigenvalues --    5.06940   5.12018   5.20362   6.82355   6.86744
 Alpha virt. eigenvalues --   11.04660  12.10920  13.40981  13.41135
          Condensed to atoms (all electrons):
              1          2          3          4          5          6
     1  C    4.723105   0.416631  -0.031275   0.005304   0.246638  -0.035119
     2  C    0.416631   4.723105   0.005304  -0.031275  -0.035119   0.246638
     3  H   -0.031275   0.005304   0.324818   0.000019   0.275617  -0.000151
     4  H    0.005304  -0.031275   0.000019   0.324818  -0.000151   0.275617
     5  O    0.246638  -0.035119   0.275617  -0.000151   8.281337   0.002494
     6  O   -0.035119   0.246638  -0.000151   0.275617   0.002494   8.281337
     7  H    0.402074  -0.040572  -0.001346  -0.000183  -0.032129   0.002176
     8  H    0.397034  -0.028037  -0.005309  -0.000201  -0.030666  -0.000292
     9  H   -0.040572   0.402074  -0.000183  -0.001346   0.002176  -0.032129
    10  H   -0.028037   0.397034  -0.000201  -0.005309  -0.000292  -0.030666
              7          8          9         10
     1  C    0.402074   0.397034  -0.040572  -0.028037
     2  C   -0.040572  -0.028037   0.402074   0.397034
     3  H   -0.001346  -0.005309  -0.000183  -0.000201
     4  H   -0.000183  -0.000201  -0.001346  -0.005309
     5  O   -0.032129  -0.030666   0.002176  -0.000292
     6  O    0.002176  -0.000292  -0.032129  -0.030666
     7  H    0.544620  -0.033410   0.000683  -0.000992
     8  H   -0.033410   0.522817  -0.000992   0.005157
     9  H    0.000683  -0.000992   0.544620  -0.033410
    10  H   -0.000992   0.005157  -0.033410   0.522817
 Mulliken atomic charges:
              1
     1  C   -0.055783
     2  C   -0.055783
     3  H    0.432707
     4  H    0.432707
     5  O   -0.709904
     6  O   -0.709904
     7  H    0.159080
     8  H    0.173899
     9  H    0.159080
    10  H    0.173899
 Sum of Mulliken charges=   0.00000
 Atomic charges with hydrogens summed into heavy atoms:
              1
     1  C    0.277196
     2  C    0.277196
     3  H    0.000000
     4  H    0.000000
     5  O   -0.277196
     6  O   -0.277196
     7  H    0.000000
     8  H    0.000000
     9  H    0.000000
    10  H    0.000000
 Sum of Mulliken charges=   0.00000
 Electronic spatial extent (au):  <R**2>=   303.9798
 Charge=     0.0000 electrons
 Dipole moment (field-independent basis, Debye):
    X=     0.0000    Y=     0.0000    Z=     1.5038  Tot=     1.5038
 Quadrupole moment (field-independent basis, Debye-Ang):
   XX=   -25.0230   YY=   -17.9916   ZZ=   -25.1791
   XY=     4.8320   XZ=     0.0000   YZ=     0.0000
 Traceless Quadrupole moment (field-independent basis, Debye-Ang):
   XX=    -2.2918   YY=     4.7396   ZZ=    -2.4479
   XY=     4.8320   XZ=     0.0000   YZ=     0.0000
 Octapole moment (field-independent basis, Debye-Ang**2):
  XXX=     0.0000  YYY=     0.0000  ZZZ=    -3.4530  XYY=     0.0000
  XXY=     0.0000  XXZ=    -1.2601  XZZ=     0.0000  YZZ=     0.0000
  YYZ=    -7.6267  XYZ=    -2.8926
 Hexadecapole moment (field-independent basis, Debye-Ang**3):
 XXXX=   -45.9116 YYYY=  -158.8066 ZZZZ=   -80.7248 XXXY=     3.6020
 XXXZ=     0.0000 YYYX=    18.3183 YYYZ=     0.0000 ZZZX=     0.0000
 ZZZY=     0.0000 XXYY=   -47.3658 XXZZ=   -22.2082 YYZZ=   -44.7399
 XXYZ=     0.0000 YYXZ=     0.0000 ZZXY=     1.4140
 N-N= 1.334469922885D+02 E-N=-8.073448239147D+02  KE= 2.291256280948D+02
 Symmetry A    KE= 1.157284181636D+02
 Symmetry B    KE= 1.133972099312D+02
 No NMR shielding tensors so no spin-rotation constants.
 Leave Link  601 at Tue Mar 16 17:00:43 2010, MaxMem=   91750400 cpu:       0.8
 (Enter /opt/g03/bin-pgi/l607.exe)
 ******************************Gaussian NBO Version 3.1******************************
             N A T U R A L   A T O M I C   O R B I T A L   A N D
          N A T U R A L   B O N D   O R B I T A L   A N A L Y S I S
 ******************************Gaussian NBO Version 3.1******************************
       /RESON  / : Allow strongly delocalized NBO set
       /NLMO   / : Form Natural Localized Molecular Orbitals

 Analyzing the SCF density

 Job title: 12-ethanediol Gaussian SP Calculation on node2.bme.utexas.edu   

 Storage needed:     28152 in NPA,     37273 in NBO,     28228 in NLMO (  91750052 available)


 NATURAL POPULATIONS:  Natural atomic orbital occupancies 
                                                          
   NAO  Atom  No  lang   Type(AO)    Occupancy      Energy
 ----------------------------------------------------------
     1    C    1  S      Cor( 1S)     1.99949     -11.13945
     2    C    1  S      Val( 2S)     1.03244      -0.28328
     3    C    1  S      Ryd( 3S)     0.00216       1.44384
     4    C    1  S      Ryd( 4S)     0.00009       4.79720
     5    C    1  S      Ryd( 5S)     0.00000       9.86498
     6    C    1  px     Val( 2p)     1.10787      -0.04068
     7    C    1  px     Ryd( 3p)     0.00207       0.90903
     8    C    1  py     Val( 2p)     0.96110      -0.02324
     9    C    1  py     Ryd( 3p)     0.00125       0.81443
    10    C    1  pz     Val( 2p)     0.92663       0.00315
    11    C    1  pz     Ryd( 3p)     0.00315       0.92591
    12    C    1  dxy    Ryd( 3d)     0.00196       1.79704
    13    C    1  dxy    Ryd( 4d)     0.00005       4.63120
    14    C    1  dxz    Ryd( 3d)     0.00153       1.79403
    15    C    1  dxz    Ryd( 4d)     0.00003       4.64866
    16    C    1  dyz    Ryd( 3d)     0.00259       1.92860
    17    C    1  dyz    Ryd( 4d)     0.00009       4.75682
    18    C    1  dx2y2  Ryd( 3d)     0.00354       2.02166
    19    C    1  dx2y2  Ryd( 4d)     0.00003       4.73228
    20    C    1  dz2    Ryd( 3d)     0.00515       1.98059
    21    C    1  dz2    Ryd( 4d)     0.00004       4.68021

    22    C    2  S      Cor( 1S)     1.99949     -11.13945
    23    C    2  S      Val( 2S)     1.03244      -0.28328
    24    C    2  S      Ryd( 3S)     0.00216       1.44384
    25    C    2  S      Ryd( 4S)     0.00009       4.79720
    26    C    2  S      Ryd( 5S)     0.00000       9.86498
    27    C    2  px     Val( 2p)     1.10787      -0.04068
    28    C    2  px     Ryd( 3p)     0.00207       0.90903
    29    C    2  py     Val( 2p)     0.96110      -0.02324
    30    C    2  py     Ryd( 3p)     0.00125       0.81443
    31    C    2  pz     Val( 2p)     0.92663       0.00315
    32    C    2  pz     Ryd( 3p)     0.00315       0.92591
    33    C    2  dxy    Ryd( 3d)     0.00196       1.79704
    34    C    2  dxy    Ryd( 4d)     0.00005       4.63120
    35    C    2  dxz    Ryd( 3d)     0.00153       1.79403
    36    C    2  dxz    Ryd( 4d)     0.00003       4.64866
    37    C    2  dyz    Ryd( 3d)     0.00259       1.92860
    38    C    2  dyz    Ryd( 4d)     0.00009       4.75682
    39    C    2  dx2y2  Ryd( 3d)     0.00354       2.02166
    40    C    2  dx2y2  Ryd( 4d)     0.00003       4.73228
    41    C    2  dz2    Ryd( 3d)     0.00515       1.98059
    42    C    2  dz2    Ryd( 4d)     0.00004       4.68021

    43    H    3  S      Val( 1S)     0.51717       0.35019
    44    H    3  S      Ryd( 2S)     0.00125       0.78570

    45    H    4  S      Val( 1S)     0.51717       0.35019
    46    H    4  S      Ryd( 2S)     0.00125       0.78570

    47    O    5  S      Cor( 1S)     1.99981     -20.34273
    48    O    5  S      Val( 2S)     1.67187      -1.11202
    49    O    5  S      Ryd( 3S)     0.00049       1.73597
    50    O    5  S      Ryd( 4S)     0.00003       8.04022
    51    O    5  S      Ryd( 5S)     0.00000      11.76351
    52    O    5  px     Val( 2p)     1.81239      -0.43700
    53    O    5  px     Ryd( 3p)     0.00179       1.40520
    54    O    5  py     Val( 2p)     1.57971      -0.35392
    55    O    5  py     Ryd( 3p)     0.00196       1.60975
    56    O    5  pz     Val( 2p)     1.70791      -0.40655
    57    O    5  pz     Ryd( 3p)     0.00194       1.41456
    58    O    5  dxy    Ryd( 3d)     0.00389       2.09915
    59    O    5  dxy    Ryd( 4d)     0.00009       4.41820
    60    O    5  dxz    Ryd( 3d)     0.00421       1.79265
    61    O    5  dxz    Ryd( 4d)     0.00008       4.42400
    62    O    5  dyz    Ryd( 3d)     0.00214       1.82466
    63    O    5  dyz    Ryd( 4d)     0.00006       4.45324
    64    O    5  dx2y2  Ryd( 3d)     0.00196       1.66810
    65    O    5  dx2y2  Ryd( 4d)     0.00009       4.36243
    66    O    5  dz2    Ryd( 3d)     0.00270       2.00361
    67    O    5  dz2    Ryd( 4d)     0.00008       4.48154

    68    O    6  S      Cor( 1S)     1.99981     -20.34273
    69    O    6  S      Val( 2S)     1.67187      -1.11202
    70    O    6  S      Ryd( 3S)     0.00049       1.73597
    71    O    6  S      Ryd( 4S)     0.00003       8.04022
    72    O    6  S      Ryd( 5S)     0.00000      11.76351
    73    O    6  px     Val( 2p)     1.81239      -0.43700
    74    O    6  px     Ryd( 3p)     0.00179       1.40520
    75    O    6  py     Val( 2p)     1.57971      -0.35392
    76    O    6  py     Ryd( 3p)     0.00196       1.60975
    77    O    6  pz     Val( 2p)     1.70791      -0.40655
    78    O    6  pz     Ryd( 3p)     0.00194       1.41456
    79    O    6  dxy    Ryd( 3d)     0.00389       2.09915
    80    O    6  dxy    Ryd( 4d)     0.00009       4.41820
    81    O    6  dxz    Ryd( 3d)     0.00421       1.79265
    82    O    6  dxz    Ryd( 4d)     0.00008       4.42400
    83    O    6  dyz    Ryd( 3d)     0.00214       1.82466
    84    O    6  dyz    Ryd( 4d)     0.00006       4.45324
    85    O    6  dx2y2  Ryd( 3d)     0.00196       1.66810
    86    O    6  dx2y2  Ryd( 4d)     0.00009       4.36243
    87    O    6  dz2    Ryd( 3d)     0.00270       2.00361
    88    O    6  dz2    Ryd( 4d)     0.00008       4.48154

    89    H    7  S      Val( 1S)     0.82275       0.13900
    90    H    7  S      Ryd( 2S)     0.00049       0.85343

    91    H    8  S      Val( 1S)     0.81299       0.14842
    92    H    8  S      Ryd( 2S)     0.00089       0.85689

    93    H    9  S      Val( 1S)     0.82275       0.13900
    94    H    9  S      Ryd( 2S)     0.00049       0.85343

    95    H   10  S      Val( 1S)     0.81299       0.14842
    96    H   10  S      Ryd( 2S)     0.00089       0.85689


 Summary of Natural Population Analysis:                  
                                                          
                                       Natural Population 
                Natural  -----------------------------------------------
    Atom  No    Charge         Core      Valence    Rydberg      Total
 -----------------------------------------------------------------------
      C    1   -0.05127      1.99949     4.02804    0.02375     6.05127
      C    2   -0.05127      1.99949     4.02804    0.02375     6.05127
      H    3    0.48158      0.00000     0.51717    0.00125     0.51842
      H    4    0.48158      0.00000     0.51717    0.00125     0.51842
      O    5   -0.79320      1.99981     6.77188    0.02151     8.79320
      O    6   -0.79320      1.99981     6.77188    0.02151     8.79320
      H    7    0.17677      0.00000     0.82275    0.00049     0.82323
      H    8    0.18612      0.00000     0.81299    0.00089     0.81388
      H    9    0.17677      0.00000     0.82275    0.00049     0.82323
      H   10    0.18612      0.00000     0.81299    0.00089     0.81388
 =======================================================================
   * Total *    0.00000      7.99859    25.90564    0.09577    34.00000

                                 Natural Population      
 --------------------------------------------------------
   Core                       7.99859 ( 99.9824% of   8)
   Valence                   25.90564 ( 99.6371% of  26)
   Natural Minimal Basis     33.90423 ( 99.7183% of  34)
   Natural Rydberg Basis      0.09577 (  0.2817% of  34)
 --------------------------------------------------------

    Atom  No          Natural Electron Configuration
 ----------------------------------------------------------------------------
      C    1      [core]2S( 1.03)2p( 3.00)3p( 0.01)3d( 0.01)
      C    2      [core]2S( 1.03)2p( 3.00)3p( 0.01)3d( 0.01)
      H    3            1S( 0.52)
      H    4            1S( 0.52)
      O    5      [core]2S( 1.67)2p( 5.10)3p( 0.01)3d( 0.01)
      O    6      [core]2S( 1.67)2p( 5.10)3p( 0.01)3d( 0.01)
      H    7            1S( 0.82)
      H    8            1S( 0.81)
      H    9            1S( 0.82)
      H   10            1S( 0.81)


 NATURAL BOND ORBITAL ANALYSIS:

                       Occupancies       Lewis Structure    Low   High
           Occ.    -------------------  -----------------   occ   occ
  Cycle   Thresh.   Lewis   Non-Lewis     CR  BD  3C  LP    (L)   (NL)   Dev
 =============================================================================
   1(1)    1.90    33.82880   0.17120      4   9   0   4     0      0    0.02
 -----------------------------------------------------------------------------

 Structure accepted: No low occupancy Lewis orbitals

 --------------------------------------------------------
   Core                      7.99859 ( 99.982% of   8)
   Valence Lewis            25.83020 ( 99.347% of  26)
  ==================       ============================
   Total Lewis              33.82880 ( 99.496% of  34)
  -----------------------------------------------------
   Valence non-Lewis         0.13740 (  0.404% of  34)
   Rydberg non-Lewis         0.03381 (  0.099% of  34)
  ==================       ============================
   Total non-Lewis           0.17120 (  0.504% of  34)
 --------------------------------------------------------


       (Occupancy)   Bond orbital/ Coefficients/ Hybrids
 ---------------------------------------------------------------------------------
     1. (1.98948) BD ( 1) C   1 - C   2  
                ( 50.00%)   0.7071* C   1 s( 28.08%)p 2.55( 71.64%)d 0.01(  0.28%)
                                            0.0000  0.5298 -0.0091 -0.0047  0.0002
                                           -0.3275  0.0014 -0.7803 -0.0017 -0.0172
                                           -0.0008  0.0317 -0.0015 -0.0020  0.0008
                                            0.0046 -0.0002 -0.0310  0.0018 -0.0287
                                            0.0022
                ( 50.00%)   0.7071* C   2 s( 28.08%)p 2.55( 71.64%)d 0.01(  0.28%)
                                            0.0000  0.5298 -0.0091 -0.0047  0.0002
                                            0.3275 -0.0014  0.7803  0.0017 -0.0172
                                           -0.0008  0.0317 -0.0015  0.0020 -0.0008
                                           -0.0046  0.0002 -0.0310  0.0018 -0.0287
                                            0.0022
     2. (1.99666) BD ( 1) C   1 - O   5  
                ( 32.38%)   0.5691* C   1 s( 21.65%)p 3.60( 77.97%)d 0.02(  0.37%)
                                           -0.0001  0.4637 -0.0380  0.0068 -0.0001
                                           -0.3340 -0.0184  0.4685  0.0207 -0.6686
                                           -0.0290 -0.0199 -0.0043  0.0312  0.0056
                                           -0.0412 -0.0073 -0.0069 -0.0012  0.0225
                                            0.0039
                ( 67.62%)   0.8223* O   5 s( 32.00%)p 2.11( 67.67%)d 0.01(  0.33%)
                                            0.0000  0.5657 -0.0016 -0.0037  0.0000
                                            0.3403 -0.0038 -0.4043 -0.0009  0.6304
                                           -0.0012 -0.0148 -0.0013  0.0424 -0.0004
                                           -0.0283 -0.0009  0.0060 -0.0004  0.0202
                                            0.0009
     3. (1.98750) BD ( 1) C   1 - H   7  
                ( 59.23%)   0.7696* C   1 s( 25.09%)p 2.97( 74.62%)d 0.01(  0.29%)
                                           -0.0001  0.5007  0.0135  0.0004 -0.0001
                                           -0.2041  0.0102  0.4082  0.0002  0.7332
                                           -0.0121 -0.0041 -0.0010 -0.0230  0.0019
                                            0.0311  0.0013 -0.0046 -0.0004  0.0371
                                           -0.0029
                ( 40.77%)   0.6385* H   7 s(100.00%)
                                            1.0000  0.0025
     4. (1.98827) BD ( 1) C   1 - H   8  
                ( 59.74%)   0.7729* C   1 s( 25.32%)p 2.94( 74.40%)d 0.01(  0.28%)
                                           -0.0001  0.5029  0.0147  0.0003  0.0000
                                            0.8572 -0.0117 -0.0173  0.0027 -0.0938
                                            0.0063 -0.0093  0.0026 -0.0060 -0.0009
                                            0.0014  0.0007  0.0420 -0.0005 -0.0298
                                            0.0016
                ( 40.26%)   0.6345* H   8 s(100.00%)
                                            1.0000  0.0035
     5. (1.99666) BD ( 1) C   2 - O   6  
                ( 32.38%)   0.5691* C   2 s( 21.65%)p 3.60( 77.97%)d 0.02(  0.37%)
                                           -0.0001  0.4637 -0.0380  0.0068 -0.0001
                                            0.3340  0.0184 -0.4685 -0.0207 -0.6686
                                           -0.0290 -0.0199 -0.0043 -0.0312 -0.0056
                                            0.0412  0.0073 -0.0069 -0.0012  0.0225
                                            0.0039
                ( 67.62%)   0.8223* O   6 s( 32.00%)p 2.11( 67.67%)d 0.01(  0.33%)
                                            0.0000  0.5657 -0.0016 -0.0037  0.0000
                                           -0.3403  0.0038  0.4043  0.0009  0.6304
                                           -0.0012 -0.0148 -0.0013 -0.0424  0.0004
                                            0.0283  0.0009  0.0060 -0.0004  0.0202
                                            0.0009
     6. (1.98750) BD ( 1) C   2 - H   9  
                ( 59.23%)   0.7696* C   2 s( 25.09%)p 2.97( 74.62%)d 0.01(  0.29%)
                                           -0.0001  0.5007  0.0135  0.0004 -0.0001
                                            0.2041 -0.0102 -0.4082 -0.0002  0.7332
                                           -0.0121 -0.0041 -0.0010  0.0230 -0.0019
                                           -0.0311 -0.0013 -0.0046 -0.0004  0.0371
                                           -0.0029
                ( 40.77%)   0.6385* H   9 s(100.00%)
                                            1.0000  0.0025
     7. (1.98827) BD ( 1) C   2 - H  10  
                ( 59.74%)   0.7729* C   2 s( 25.32%)p 2.94( 74.40%)d 0.01(  0.28%)
                                            0.0001 -0.5029 -0.0147 -0.0003  0.0000
                                            0.8572 -0.0117 -0.0173  0.0027  0.0938
                                           -0.0063  0.0093 -0.0026 -0.0060 -0.0009
                                            0.0014  0.0007 -0.0420  0.0005  0.0298
                                           -0.0016
                ( 40.26%)   0.6345* H  10 s(100.00%)
                                           -1.0000 -0.0035
     8. (1.99063) BD ( 1) H   3 - O   5  
                ( 25.82%)   0.5082* H   3 s(100.00%)
                                            1.0000 -0.0028
                ( 74.18%)   0.8613* O   5 s( 22.19%)p 3.49( 77.51%)d 0.01(  0.31%)
                                           -0.0001  0.4709 -0.0118  0.0014  0.0004
                                            0.4234 -0.0068  0.7530  0.0207 -0.1665
                                           -0.0231  0.0463  0.0067  0.0069 -0.0048
                                            0.0062 -0.0026 -0.0029 -0.0055 -0.0261
                                           -0.0048
     9. (1.99063) BD ( 1) H   4 - O   6  
                ( 25.82%)   0.5082* H   4 s(100.00%)
                                            1.0000 -0.0028
                ( 74.18%)   0.8613* O   6 s( 22.19%)p 3.49( 77.51%)d 0.01(  0.31%)
                                           -0.0001  0.4709 -0.0118  0.0014  0.0004
                                           -0.4234  0.0068 -0.7530 -0.0207 -0.1665
                                           -0.0231  0.0463  0.0067 -0.0069  0.0048
                                           -0.0062  0.0026 -0.0029 -0.0055 -0.0261
                                           -0.0048
    10. (1.99949) CR ( 1) C   1           s(100.00%)
                                            1.0000  0.0001  0.0000  0.0000  0.0000
                                            0.0000  0.0000  0.0001  0.0000  0.0000
                                            0.0000  0.0000  0.0000  0.0000  0.0000
                                            0.0000  0.0000  0.0000  0.0000  0.0000
                                            0.0000
    11. (1.99949) CR ( 1) C   2           s(100.00%)
                                            1.0000  0.0001  0.0000  0.0000  0.0000
                                            0.0000  0.0000 -0.0001  0.0000  0.0000
                                            0.0000  0.0000  0.0000  0.0000  0.0000
                                            0.0000  0.0000  0.0000  0.0000  0.0000
                                            0.0000
    12. (1.99981) CR ( 1) O   5           s(100.00%)
                                            1.0000  0.0001  0.0000  0.0000  0.0000
                                            0.0000  0.0000  0.0001  0.0000 -0.0001
                                            0.0000  0.0000  0.0000  0.0000  0.0000
                                            0.0000  0.0000  0.0000  0.0000  0.0000
                                            0.0000
    13. (1.99981) CR ( 1) O   6           s(100.00%)
                                            1.0000  0.0001  0.0000  0.0000  0.0000
                                            0.0000  0.0000 -0.0001  0.0000 -0.0001
                                            0.0000  0.0000  0.0000  0.0000  0.0000
                                            0.0000  0.0000  0.0000  0.0000  0.0000
                                            0.0000
    14. (1.98597) LP ( 1) O   5           s( 45.54%)p 1.19( 54.33%)d 0.00(  0.12%)
                                            0.0000  0.6748  0.0067  0.0013 -0.0002
                                           -0.6190  0.0030 -0.1545  0.0028 -0.3691
                                           -0.0011 -0.0115  0.0015 -0.0272  0.0024
                                           -0.0071  0.0019 -0.0175  0.0021  0.0020
                                           -0.0005
    15. (1.97133) LP ( 2) O   5           s(  0.20%)p99.99( 99.62%)d 0.90(  0.18%)
                                            0.0000  0.0446  0.0009  0.0005  0.0001
                                            0.5649 -0.0061 -0.4914  0.0052 -0.6600
                                            0.0054 -0.0090  0.0005 -0.0097  0.0012
                                           -0.0202  0.0026  0.0251 -0.0029 -0.0236
                                            0.0017
    16. (1.98597) LP ( 1) O   6           s( 45.54%)p 1.19( 54.33%)d 0.00(  0.12%)
                                            0.0000  0.6748  0.0067  0.0013 -0.0002
                                            0.6190 -0.0030  0.1545 -0.0028 -0.3691
                                           -0.0011 -0.0115  0.0015  0.0272 -0.0024
                                            0.0071 -0.0019 -0.0175  0.0021  0.0020
                                           -0.0005
    17. (1.97133) LP ( 2) O   6           s(  0.20%)p99.99( 99.62%)d 0.90(  0.18%)
                                            0.0000  0.0446  0.0009  0.0005  0.0001
                                           -0.5649  0.0061  0.4914 -0.0052 -0.6600
                                            0.0054 -0.0090  0.0005  0.0097 -0.0012
                                            0.0202 -0.0026  0.0251 -0.0029 -0.0236
                                            0.0017
    18. (0.00304) RY*( 1) C   1           s( 13.10%)p 5.49( 71.91%)d 1.14( 14.99%)
                                            0.0000  0.0144  0.3558  0.0648  0.0051
                                           -0.0422 -0.0487  0.0127  0.2054 -0.0130
                                            0.8200 -0.1516  0.0398  0.1124 -0.0121
                                            0.1198 -0.0826  0.2471  0.0297 -0.1714
                                           -0.0092
    19. (0.00222) RY*( 2) C   1           s(  8.47%)p 6.17( 52.29%)d 4.63( 39.24%)
                                            0.0000  0.0122  0.2769  0.0890 -0.0022
                                            0.0105  0.6805 -0.0056 -0.2126 -0.0541
                                            0.1072  0.2167 -0.0463 -0.1418  0.0120
                                            0.2222  0.0048 -0.0021 -0.0345  0.5215
                                            0.0229
    20. (0.00179) RY*( 3) C   1           s(  0.26%)p99.99( 40.58%)d99.99( 59.16%)
                                            0.0000  0.0069  0.0433  0.0255  0.0044
                                           -0.0207  0.4279  0.0408 -0.4660 -0.0055
                                           -0.0580 -0.1002 -0.0674  0.0681  0.0058
                                            0.0883 -0.0056 -0.0542 -0.0216 -0.7491
                                            0.0044
    21. (0.00102) RY*( 4) C   1           s( 16.43%)p 1.43( 23.51%)d 3.66( 60.06%)
                                            0.0000 -0.0044  0.4046  0.0151 -0.0177
                                           -0.0373 -0.1316 -0.0198  0.0146 -0.0187
                                           -0.4641 -0.1408  0.0740  0.1247  0.0448
                                            0.3784  0.1661  0.6188  0.0638 -0.0039
                                            0.0013
    22. (0.00094) RY*( 5) C   1           s(  0.24%)p32.39(  7.82%)d99.99( 91.94%)
                                            0.0000 -0.0038  0.0437  0.0200  0.0098
                                           -0.0075 -0.2655  0.0433  0.0610 -0.0370
                                            0.0255  0.6540 -0.0057 -0.4482 -0.0092
                                            0.4507 -0.0968 -0.0783 -0.0043 -0.2532
                                            0.0893
    23. (0.00053) RY*( 6) C   1           s(  0.24%)p99.99( 91.71%)d33.17(  8.05%)
                                            0.0000  0.0079  0.0103  0.0441  0.0176
                                           -0.0016 -0.4718 -0.0018 -0.8094 -0.0075
                                            0.1984 -0.0170 -0.0207  0.0803  0.0254
                                            0.0628  0.0332 -0.0159  0.1034  0.2378
                                           -0.0118
    24. (0.00015) RY*( 7) C   1           s( 45.89%)p 0.08(  3.83%)d 1.10( 50.28%)
                                            0.0000  0.0005  0.6628 -0.1391  0.0166
                                            0.0134 -0.1124  0.0137  0.0627  0.0046
                                           -0.1461  0.2225 -0.2225  0.3384 -0.0051
                                           -0.2415 -0.0190 -0.4195  0.1757 -0.0391
                                            0.1487
    25. (0.00003) RY*( 8) C   1           s( 10.30%)p 0.31(  3.16%)d 8.40( 86.53%)
    26. (0.00001) RY*( 9) C   1           s( 13.40%)p 0.11(  1.47%)d 6.35( 85.13%)
    27. (0.00000) RY*(10) C   1           s(  0.04%)p 3.17(  0.13%)d99.99( 99.83%)
    28. (0.00000) RY*(11) C   1           s( 86.36%)p 0.01(  0.78%)d 0.15( 12.85%)
    29. (0.00000) RY*(12) C   1           s(  0.10%)p22.03(  2.17%)d99.99( 97.73%)
    30. (0.00000) RY*(13) C   1           s( 99.88%)p 0.00(  0.04%)d 0.00(  0.08%)
    31. (0.00000) RY*(14) C   1           s(  2.23%)p 0.69(  1.54%)d43.11( 96.23%)
    32. (0.00000) RY*(15) C   1           s(  1.49%)p 0.17(  0.25%)d66.03( 98.26%)
    33. (0.00000) RY*(16) C   1           s(  1.41%)p 0.13(  0.19%)d69.70( 98.40%)
    34. (0.00304) RY*( 1) C   2           s( 13.10%)p 5.49( 71.91%)d 1.14( 14.99%)
                                            0.0000  0.0144  0.3558  0.0648  0.0051
                                            0.0422  0.0487 -0.0127 -0.2054 -0.0130
                                            0.8200 -0.1516  0.0398 -0.1124  0.0121
                                           -0.1198  0.0826  0.2471  0.0297 -0.1714
                                           -0.0092
    35. (0.00222) RY*( 2) C   2           s(  8.47%)p 6.17( 52.29%)d 4.63( 39.24%)
                                            0.0000  0.0122  0.2769  0.0890 -0.0022
                                           -0.0105 -0.6805  0.0056  0.2126 -0.0541
                                            0.1072  0.2167 -0.0463  0.1418 -0.0120
                                           -0.2222 -0.0048 -0.0021 -0.0345  0.5215
                                            0.0229
    36. (0.00179) RY*( 3) C   2           s(  0.26%)p99.99( 40.58%)d99.99( 59.16%)
                                            0.0000  0.0069  0.0433  0.0255  0.0044
                                            0.0207 -0.4279 -0.0408  0.4660 -0.0055
                                           -0.0580 -0.1002 -0.0674 -0.0681 -0.0058
                                           -0.0883  0.0056 -0.0542 -0.0216 -0.7491
                                            0.0044
    37. (0.00102) RY*( 4) C   2           s( 16.43%)p 1.43( 23.51%)d 3.66( 60.06%)
                                            0.0000 -0.0044  0.4046  0.0151 -0.0177
                                            0.0373  0.1316  0.0198 -0.0146 -0.0187
                                           -0.4641 -0.1408  0.0740 -0.1247 -0.0448
                                           -0.3784 -0.1661  0.6188  0.0638 -0.0039
                                            0.0013
    38. (0.00094) RY*( 5) C   2           s(  0.24%)p32.39(  7.82%)d99.99( 91.94%)
                                            0.0000 -0.0038  0.0437  0.0200  0.0098
                                            0.0075  0.2655 -0.0433 -0.0610 -0.0370
                                            0.0255  0.6540 -0.0057  0.4482  0.0092
                                           -0.4507  0.0968 -0.0783 -0.0043 -0.2532
                                            0.0893
    39. (0.00053) RY*( 6) C   2           s(  0.24%)p99.99( 91.71%)d33.17(  8.05%)
                                            0.0000  0.0079  0.0103  0.0441  0.0176
                                            0.0016  0.4718  0.0018  0.8094 -0.0075
                                            0.1984 -0.0170 -0.0207 -0.0803 -0.0254
                                           -0.0628 -0.0332 -0.0159  0.1034  0.2378
                                           -0.0118
    40. (0.00015) RY*( 7) C   2           s( 45.89%)p 0.08(  3.83%)d 1.10( 50.28%)
                                            0.0000  0.0005  0.6628 -0.1391  0.0166
                                           -0.0134  0.1124 -0.0137 -0.0627  0.0046
                                           -0.1461  0.2225 -0.2225 -0.3384  0.0051
                                            0.2415  0.0190 -0.4195  0.1757 -0.0391
                                            0.1487
    41. (0.00003) RY*( 8) C   2           s( 10.30%)p 0.31(  3.16%)d 8.40( 86.53%)
    42. (0.00001) RY*( 9) C   2           s( 13.40%)p 0.11(  1.47%)d 6.35( 85.13%)
    43. (0.00000) RY*(10) C   2           s(  0.04%)p 3.17(  0.13%)d99.99( 99.83%)
    44. (0.00000) RY*(11) C   2           s( 86.36%)p 0.01(  0.78%)d 0.15( 12.85%)
    45. (0.00000) RY*(12) C   2           s(  0.10%)p22.03(  2.17%)d99.99( 97.73%)
    46. (0.00000) RY*(13) C   2           s( 99.88%)p 0.00(  0.04%)d 0.00(  0.08%)
    47. (0.00000) RY*(14) C   2           s(  2.23%)p 0.69(  1.54%)d43.11( 96.23%)
    48. (0.00000) RY*(15) C   2           s(  1.49%)p 0.17(  0.25%)d66.03( 98.26%)
    49. (0.00000) RY*(16) C   2           s(  1.41%)p 0.13(  0.19%)d69.70( 98.40%)
    50. (0.00125) RY*( 1) H   3           s(100.00%)
                                            0.0028  1.0000
    51. (0.00125) RY*( 1) H   4           s(100.00%)
                                            0.0028  1.0000
    52. (0.00239) RY*( 1) O   5           s(  0.38%)p99.99( 96.88%)d 7.25(  2.75%)
                                            0.0000  0.0015  0.0614  0.0016  0.0042
                                           -0.0017 -0.5286  0.0057  0.5356  0.0049
                                            0.6344 -0.0223  0.0633 -0.0337 -0.0106
                                            0.0705  0.0024 -0.0099  0.0184  0.0675
                                            0.1084
    53. (0.00170) RY*( 2) O   5           s(  8.55%)p 9.86( 84.35%)d 0.83(  7.10%)
                                            0.0000  0.0036  0.2917 -0.0109  0.0183
                                            0.0068  0.7400 -0.0033  0.5294  0.0075
                                            0.1246 -0.0050 -0.0621 -0.0358  0.1134
                                            0.1705  0.0407  0.0925  0.1029 -0.0411
                                            0.0373
    54. (0.00026) RY*( 3) O   5           s( 11.97%)p 5.58( 66.77%)d 1.78( 21.26%)
                                            0.0000 -0.0199  0.3383  0.0684 -0.0141
                                           -0.0116 -0.2727 -0.0161  0.4613 -0.0077
                                           -0.6165  0.0256  0.0170  0.2677 -0.1884
                                           -0.1224  0.1374 -0.2300  0.0917  0.0077
                                           -0.0963
    55. (0.00010) RY*( 4) O   5           s(  9.73%)p 0.34(  3.35%)d 8.94( 86.93%)
    56. (0.00002) RY*( 5) O   5           s( 14.26%)p 1.77( 25.21%)d 4.24( 60.53%)
    57. (0.00002) RY*( 6) O   5           s(  6.23%)p 0.25(  1.55%)d14.81( 92.23%)
    58. (0.00000) RY*( 7) O   5           s(  0.31%)p 6.27(  1.97%)d99.99( 97.72%)
    59. (0.00000) RY*( 8) O   5           s(  0.65%)p 1.32(  0.86%)d99.99( 98.50%)
    60. (0.00000) RY*( 9) O   5           s(  3.97%)p 0.27(  1.08%)d23.90( 94.95%)
    61. (0.00000) RY*(10) O   5           s(  0.46%)p 5.41(  2.48%)d99.99( 97.06%)
    62. (0.00000) RY*(11) O   5           s( 45.34%)p 0.17(  7.81%)d 1.03( 46.85%)
    63. (0.00000) RY*(12) O   5           s(  2.61%)p 1.63(  4.25%)d35.75( 93.15%)
    64. (0.00000) RY*(13) O   5           s( 95.51%)p 0.01(  0.56%)d 0.04(  3.93%)
    65. (0.00000) RY*(14) O   5           s(  0.21%)p 7.38(  1.54%)d99.99( 98.25%)
    66. (0.00000) RY*(15) O   5           s( 99.70%)p 0.00(  0.08%)d 0.00(  0.22%)
    67. (0.00000) RY*(16) O   5           s(  0.19%)p11.51(  2.15%)d99.99( 97.66%)
    68. (0.00239) RY*( 1) O   6           s(  0.38%)p99.99( 96.88%)d 7.25(  2.75%)
                                            0.0000  0.0015  0.0614  0.0016  0.0042
                                            0.0017  0.5286 -0.0057 -0.5356  0.0049
                                            0.6344 -0.0223  0.0633  0.0337  0.0106
                                           -0.0705 -0.0024 -0.0099  0.0184  0.0675
                                            0.1084
    69. (0.00170) RY*( 2) O   6           s(  8.55%)p 9.86( 84.35%)d 0.83(  7.10%)
                                            0.0000  0.0036  0.2917 -0.0109  0.0183
                                           -0.0068 -0.7400  0.0033 -0.5294  0.0075
                                            0.1246 -0.0050 -0.0621  0.0358 -0.1134
                                           -0.1705 -0.0407  0.0925  0.1029 -0.0411
                                            0.0373
    70. (0.00026) RY*( 3) O   6           s( 11.97%)p 5.58( 66.77%)d 1.78( 21.26%)
                                            0.0000 -0.0199  0.3383  0.0684 -0.0141
                                            0.0116  0.2727  0.0161 -0.4613 -0.0077
                                           -0.6165  0.0256  0.0170 -0.2677  0.1884
                                            0.1224 -0.1374 -0.2300  0.0917  0.0077
                                           -0.0963
    71. (0.00010) RY*( 4) O   6           s(  9.73%)p 0.34(  3.35%)d 8.94( 86.93%)
    72. (0.00002) RY*( 5) O   6           s( 14.26%)p 1.77( 25.21%)d 4.24( 60.53%)
    73. (0.00002) RY*( 6) O   6           s(  6.23%)p 0.25(  1.55%)d14.81( 92.23%)
    74. (0.00000) RY*( 7) O   6           s(  0.31%)p 6.27(  1.97%)d99.99( 97.72%)
    75. (0.00000) RY*( 8) O   6           s(  0.65%)p 1.32(  0.86%)d99.99( 98.50%)
    76. (0.00000) RY*( 9) O   6           s(  3.97%)p 0.27(  1.08%)d23.90( 94.95%)
    77. (0.00000) RY*(10) O   6           s(  0.46%)p 5.41(  2.48%)d99.99( 97.06%)
    78. (0.00000) RY*(11) O   6           s( 45.34%)p 0.17(  7.81%)d 1.03( 46.85%)
    79. (0.00000) RY*(12) O   6           s(  2.61%)p 1.63(  4.25%)d35.75( 93.15%)
    80. (0.00000) RY*(13) O   6           s( 95.51%)p 0.01(  0.56%)d 0.04(  3.93%)
    81. (0.00000) RY*(14) O   6           s(  0.21%)p 7.38(  1.54%)d99.99( 98.25%)
    82. (0.00000) RY*(15) O   6           s( 99.70%)p 0.00(  0.08%)d 0.00(  0.22%)
    83. (0.00000) RY*(16) O   6           s(  0.19%)p11.51(  2.15%)d99.99( 97.66%)
    84. (0.00049) RY*( 1) H   7           s(100.00%)
                                           -0.0025  1.0000
    85. (0.00090) RY*( 1) H   8           s(100.00%)
                                           -0.0035  1.0000
    86. (0.00049) RY*( 1) H   9           s(100.00%)
                                           -0.0025  1.0000
    87. (0.00090) RY*( 1) H  10           s(100.00%)
                                           -0.0035  1.0000
    88. (0.02136) BD*( 1) C   1 - C   2  
                ( 50.00%)   0.7071* C   1 s( 28.08%)p 2.55( 71.64%)d 0.01(  0.28%)
                                            0.0000  0.5298 -0.0091 -0.0047  0.0002
                                           -0.3275  0.0014 -0.7803 -0.0017 -0.0172
                                           -0.0008  0.0317 -0.0015 -0.0020  0.0008
                                            0.0046 -0.0002 -0.0310  0.0018 -0.0287
                                            0.0022
                ( 50.00%)  -0.7071* C   2 s( 28.08%)p 2.55( 71.64%)d 0.01(  0.28%)
                                            0.0000  0.5298 -0.0091 -0.0047  0.0002
                                            0.3275 -0.0014  0.7803  0.0017 -0.0172
                                           -0.0008  0.0317 -0.0015  0.0020 -0.0008
                                           -0.0046  0.0002 -0.0310  0.0018 -0.0287
                                            0.0022
    89. (0.01170) BD*( 1) C   1 - O   5  
                ( 67.62%)   0.8223* C   1 s( 21.65%)p 3.60( 77.97%)d 0.02(  0.37%)
                                           -0.0001  0.4637 -0.0380  0.0068 -0.0001
                                           -0.3340 -0.0184  0.4685  0.0207 -0.6686
                                           -0.0290 -0.0199 -0.0043  0.0312  0.0056
                                           -0.0412 -0.0073 -0.0069 -0.0012  0.0225
                                            0.0039
                ( 32.38%)  -0.5691* O   5 s( 32.00%)p 2.11( 67.67%)d 0.01(  0.33%)
                                            0.0000  0.5657 -0.0016 -0.0037  0.0000
                                            0.3403 -0.0038 -0.4043 -0.0009  0.6304
                                           -0.0012 -0.0148 -0.0013  0.0424 -0.0004
                                           -0.0283 -0.0009  0.0060 -0.0004  0.0202
                                            0.0009
    90. (0.02102) BD*( 1) C   1 - H   7  
                ( 40.77%)   0.6385* C   1 s( 25.09%)p 2.97( 74.62%)d 0.01(  0.29%)
                                            0.0001 -0.5007 -0.0135 -0.0004  0.0001
                                            0.2041 -0.0102 -0.4082 -0.0002 -0.7332
                                            0.0121  0.0041  0.0010  0.0230 -0.0019
                                           -0.0311 -0.0013  0.0046  0.0004 -0.0371
                                            0.0029
                ( 59.23%)  -0.7696* H   7 s(100.00%)
                                           -1.0000 -0.0025
    91. (0.02109) BD*( 1) C   1 - H   8  
                ( 40.26%)   0.6345* C   1 s( 25.32%)p 2.94( 74.40%)d 0.01(  0.28%)
                                            0.0001 -0.5029 -0.0147 -0.0003  0.0000
                                           -0.8572  0.0117  0.0173 -0.0027  0.0938
                                           -0.0063  0.0093 -0.0026  0.0060  0.0009
                                           -0.0014 -0.0007 -0.0420  0.0005  0.0298
                                           -0.0016
                ( 59.74%)  -0.7729* H   8 s(100.00%)
                                           -1.0000 -0.0035
    92. (0.01170) BD*( 1) C   2 - O   6  
                ( 67.62%)   0.8223* C   2 s( 21.65%)p 3.60( 77.97%)d 0.02(  0.37%)
                                           -0.0001  0.4637 -0.0380  0.0068 -0.0001
                                            0.3340  0.0184 -0.4685 -0.0207 -0.6686
                                           -0.0290 -0.0199 -0.0043 -0.0312 -0.0056
                                            0.0412  0.0073 -0.0069 -0.0012  0.0225
                                            0.0039
                ( 32.38%)  -0.5691* O   6 s( 32.00%)p 2.11( 67.67%)d 0.01(  0.33%)
                                            0.0000  0.5657 -0.0016 -0.0037  0.0000
                                           -0.3403  0.0038  0.4043  0.0009  0.6304
                                           -0.0012 -0.0148 -0.0013 -0.0424  0.0004
                                            0.0283  0.0009  0.0060 -0.0004  0.0202
                                            0.0009
    93. (0.02102) BD*( 1) C   2 - H   9  
                ( 40.77%)   0.6385* C   2 s( 25.09%)p 2.97( 74.62%)d 0.01(  0.29%)
                                            0.0001 -0.5007 -0.0135 -0.0004  0.0001
                                           -0.2041  0.0102  0.4082  0.0002 -0.7332
                                            0.0121  0.0041  0.0010 -0.0230  0.0019
                                            0.0311  0.0013  0.0046  0.0004 -0.0371
                                            0.0029
                ( 59.23%)  -0.7696* H   9 s(100.00%)
                                           -1.0000 -0.0025
    94. (0.02109) BD*( 1) C   2 - H  10  
                ( 40.26%)   0.6345* C   2 s( 25.32%)p 2.94( 74.40%)d 0.01(  0.28%)
                                           -0.0001  0.5029  0.0147  0.0003  0.0000
                                           -0.8572  0.0117  0.0173 -0.0027 -0.0938
                                            0.0063 -0.0093  0.0026  0.0060  0.0009
                                           -0.0014 -0.0007  0.0420 -0.0005 -0.0298
                                            0.0016
                ( 59.74%)  -0.7729* H  10 s(100.00%)
                                            1.0000  0.0035
    95. (0.00422) BD*( 1) H   3 - O   5  
                ( 74.18%)   0.8613* H   3 s(100.00%)
                                            1.0000 -0.0028
                ( 25.82%)  -0.5082* O   5 s( 22.19%)p 3.49( 77.51%)d 0.01(  0.31%)
                                           -0.0001  0.4709 -0.0118  0.0014  0.0004
                                            0.4234 -0.0068  0.7530  0.0207 -0.1665
                                           -0.0231  0.0463  0.0067  0.0069 -0.0048
                                            0.0062 -0.0026 -0.0029 -0.0055 -0.0261
                                           -0.0048
    96. (0.00422) BD*( 1) H   4 - O   6  
                ( 74.18%)   0.8613* H   4 s(100.00%)
                                            1.0000 -0.0028
                ( 25.82%)  -0.5082* O   6 s( 22.19%)p 3.49( 77.51%)d 0.01(  0.31%)
                                           -0.0001  0.4709 -0.0118  0.0014  0.0004
                                           -0.4234  0.0068 -0.7530 -0.0207 -0.1665
                                           -0.0231  0.0463  0.0067 -0.0069  0.0048
                                           -0.0062  0.0026 -0.0029 -0.0055 -0.0261
                                           -0.0048


 NHO Directionality and "Bond Bending" (deviations from line of nuclear centers)

         [Thresholds for printing:  angular deviation  >  1.0 degree]
                                    hybrid p-character > 25.0%
                                    orbital occupancy  >  0.10e

                              Line of Centers        Hybrid 1              Hybrid 2
                              ---------------  -------------------   ------------------
              NBO               Theta   Phi    Theta   Phi    Dev    Theta   Phi    Dev
 ======================================================================================
   1. BD (   1) C   1 - C   2    90.0  248.2    91.2  247.4   1.5     91.2   67.4   1.5
   2. BD (   1) C   1 - O   5   139.7  128.2   139.2  125.8   1.7     39.9  309.7   1.0
   3. BD (   1) C   1 - H   7    29.3  116.8    32.1  115.4   2.8      --     --    --
   4. BD (   1) C   1 - H   8    94.6  357.0    95.9  359.0   2.4      --     --    --
   5. BD (   1) C   2 - O   6   139.7  308.2   139.2  305.8   1.7     39.9  129.7   1.0
   6. BD (   1) C   2 - H   9    29.3  296.8    32.1  295.4   2.8      --     --    --
   7. BD (   1) C   2 - H  10    94.6  177.0    95.9  179.0   2.4      --     --    --
   8. BD (   1) H   3 - O   5    81.1  238.4     --     --    --     102.2   61.7   4.6
   9. BD (   1) H   4 - O   6    81.1   58.4     --     --    --     102.2  241.7   4.6
  14. LP (   1) O   5             --     --    120.3  193.8   --       --     --    --
  15. LP (   2) O   5             --     --    131.5  319.0   --       --     --    --
  16. LP (   1) O   6             --     --    120.3   13.8   --       --     --    --
  17. LP (   2) O   6             --     --    131.5  139.0   --       --     --    --


 Second Order Perturbation Theory Analysis of Fock Matrix in NBO Basis

     Threshold for printing:   0.50 kcal/mol
                                                                              E(2)  E(j)-E(i) F(i,j)
         Donor NBO (i)                     Acceptor NBO (j)                 kcal/mol   a.u.    a.u. 
 ===================================================================================================

 within unit  1
   1. BD (   1) C   1 - C   2        / 53. RY*(   2) O   5                    0.86    2.39    0.041
   1. BD (   1) C   1 - C   2        / 69. RY*(   2) O   6                    0.86    2.39    0.041
   1. BD (   1) C   1 - C   2        / 95. BD*(   1) H   3 - O   5            2.62    1.61    0.058
   1. BD (   1) C   1 - C   2        / 96. BD*(   1) H   4 - O   6            2.62    1.61    0.058
   2. BD (   1) C   1 - O   5        / 93. BD*(   1) C   2 - H   9            1.77    1.78    0.050
   3. BD (   1) C   1 - H   7        / 52. RY*(   1) O   5                    1.68    2.12    0.053
   3. BD (   1) C   1 - H   7        / 92. BD*(   1) C   2 - O   6            5.59    1.29    0.076
   4. BD (   1) C   1 - H   8        / 52. RY*(   1) O   5                    0.76    2.12    0.036
   4. BD (   1) C   1 - H   8        / 53. RY*(   2) O   5                    0.72    2.27    0.036
   4. BD (   1) C   1 - H   8        / 89. BD*(   1) C   1 - O   5            0.61    1.29    0.025
   4. BD (   1) C   1 - H   8        / 92. BD*(   1) C   2 - O   6            1.09    1.29    0.034
   4. BD (   1) C   1 - H   8        / 94. BD*(   1) C   2 - H  10            4.05    1.40    0.067
   5. BD (   1) C   2 - O   6        / 90. BD*(   1) C   1 - H   7            1.77    1.78    0.050
   6. BD (   1) C   2 - H   9        / 68. RY*(   1) O   6                    1.68    2.12    0.053
   6. BD (   1) C   2 - H   9        / 89. BD*(   1) C   1 - O   5            5.59    1.29    0.076
   7. BD (   1) C   2 - H  10        / 68. RY*(   1) O   6                    0.76    2.12    0.036
   7. BD (   1) C   2 - H  10        / 69. RY*(   2) O   6                    0.72    2.27    0.036
   7. BD (   1) C   2 - H  10        / 89. BD*(   1) C   1 - O   5            1.09    1.29    0.034
   7. BD (   1) C   2 - H  10        / 91. BD*(   1) C   1 - H   8            4.05    1.40    0.067
   7. BD (   1) C   2 - H  10        / 92. BD*(   1) C   2 - O   6            0.61    1.29    0.025
   8. BD (   1) H   3 - O   5        / 22. RY*(   5) C   1                    0.51    2.78    0.034
   8. BD (   1) H   3 - O   5        / 88. BD*(   1) C   1 - C   2            4.22    1.58    0.073
   9. BD (   1) H   4 - O   6        / 38. RY*(   5) C   2                    0.51    2.78    0.034
   9. BD (   1) H   4 - O   6        / 88. BD*(   1) C   1 - C   2            4.22    1.58    0.073
  10. CR (   1) C   1                / 39. RY*(   6) C   2                    0.98   12.05    0.097
  10. CR (   1) C   1                / 89. BD*(   1) C   1 - O   5            1.28   11.74    0.110
  11. CR (   1) C   2                / 23. RY*(   6) C   1                    0.98   12.05    0.097
  11. CR (   1) C   2                / 92. BD*(   1) C   2 - O   6            1.28   11.74    0.110
  12. CR (   1) O   5                / 18. RY*(   1) C   1                    0.96   21.57    0.128
  12. CR (   1) O   5                / 19. RY*(   2) C   1                    0.79   21.82    0.117
  13. CR (   1) O   6                / 34. RY*(   1) C   2                    0.96   21.57    0.128
  13. CR (   1) O   6                / 35. RY*(   2) C   2                    0.79   21.82    0.117
  14. LP (   1) O   5                / 18. RY*(   1) C   1                    1.36    2.04    0.047
  14. LP (   1) O   5                / 19. RY*(   2) C   1                    0.75    2.30    0.037
  14. LP (   1) O   5                / 88. BD*(   1) C   1 - C   2            1.56    1.46    0.043
  14. LP (   1) O   5                / 90. BD*(   1) C   1 - H   7            0.66    1.52    0.028
  14. LP (   1) O   5                / 91. BD*(   1) C   1 - H   8            3.48    1.53    0.065
  14. LP (   1) O   5                / 93. BD*(   1) C   2 - H   9            0.63    1.52    0.028
  15. LP (   2) O   5                / 19. RY*(   2) C   1                    0.93    1.96    0.038
  15. LP (   2) O   5                / 20. RY*(   3) C   1                    0.64    1.89    0.031
  15. LP (   2) O   5                / 88. BD*(   1) C   1 - C   2            0.72    1.12    0.025
  15. LP (   2) O   5                / 90. BD*(   1) C   1 - H   7           11.00    1.19    0.102
  15. LP (   2) O   5                / 91. BD*(   1) C   1 - H   8            5.38    1.19    0.072
  16. LP (   1) O   6                / 34. RY*(   1) C   2                    1.36    2.04    0.047
  16. LP (   1) O   6                / 35. RY*(   2) C   2                    0.75    2.30    0.037
  16. LP (   1) O   6                / 88. BD*(   1) C   1 - C   2            1.56    1.46    0.043
  16. LP (   1) O   6                / 90. BD*(   1) C   1 - H   7            0.63    1.52    0.028
  16. LP (   1) O   6                / 93. BD*(   1) C   2 - H   9            0.66    1.52    0.028
  16. LP (   1) O   6                / 94. BD*(   1) C   2 - H  10            3.48    1.53    0.065
  17. LP (   2) O   6                / 35. RY*(   2) C   2                    0.93    1.96    0.038
  17. LP (   2) O   6                / 36. RY*(   3) C   2                    0.64    1.89    0.031
  17. LP (   2) O   6                / 88. BD*(   1) C   1 - C   2            0.72    1.12    0.025
  17. LP (   2) O   6                / 93. BD*(   1) C   2 - H   9           11.00    1.19    0.102
  17. LP (   2) O   6                / 94. BD*(   1) C   2 - H  10            5.38    1.19    0.072


 Natural Bond Orbitals (Summary):

                                                            Principal Delocalizations
           NBO                        Occupancy    Energy   (geminal,vicinal,remote)
 ====================================================================================
 Molecular unit  1  (C2H6O2)
   1. BD (   1) C   1 - C   2          1.98948    -0.81350  95(v),96(v),53(v),69(v)
   2. BD (   1) C   1 - O   5          1.99666    -1.07007  93(v)
   3. BD (   1) C   1 - H   7          1.98750    -0.68788  92(v),52(v)
   4. BD (   1) C   1 - H   8          1.98827    -0.68918  94(v),92(v),52(v),53(v)
                                                    89(g)
   5. BD (   1) C   2 - O   6          1.99666    -1.07007  90(v)
   6. BD (   1) C   2 - H   9          1.98750    -0.68788  89(v),68(v)
   7. BD (   1) C   2 - H  10          1.98827    -0.68918  91(v),89(v),68(v),69(v)
                                                    92(g)
   8. BD (   1) H   3 - O   5          1.99063    -0.93871  88(v),22(v)
   9. BD (   1) H   4 - O   6          1.99063    -0.93871  88(v),38(v)
  10. CR (   1) C   1                  1.99949   -11.13964  89(g),39(v)
  11. CR (   1) C   2                  1.99949   -11.13964  92(g),23(v)
  12. CR (   1) O   5                  1.99981   -20.34293  18(v),19(v)
  13. CR (   1) O   6                  1.99981   -20.34293  34(v),35(v)
  14. LP (   1) O   5                  1.98597    -0.81625  91(v),88(v),18(v),19(v)
                                                    90(v),93(r)
  15. LP (   2) O   5                  1.97133    -0.47985  90(v),91(v),19(v),88(v)
                                                    20(v)
  16. LP (   1) O   6                  1.98597    -0.81625  94(v),88(v),34(v),35(v)
                                                    93(v),90(r)
  17. LP (   2) O   6                  1.97133    -0.47985  93(v),94(v),35(v),88(v)
                                                    36(v)
  18. RY*(   1) C   1                  0.00304     1.22551   
  19. RY*(   2) C   1                  0.00222     1.48025   
  20. RY*(   3) C   1                  0.00179     1.41411   
  21. RY*(   4) C   1                  0.00102     1.91226   
  22. RY*(   5) C   1                  0.00094     1.83752   
  23. RY*(   6) C   1                  0.00053     0.91151   
  24. RY*(   7) C   1                  0.00015     1.86242   
  25. RY*(   8) C   1                  0.00003     2.38742   
  26. RY*(   9) C   1                  0.00001     1.68469   
  27. RY*(  10) C   1                  0.00000     4.61282   
  28. RY*(  11) C   1                  0.00000     4.47629   
  29. RY*(  12) C   1                  0.00000     4.46965   
  30. RY*(  13) C   1                  0.00000     9.83285   
  31. RY*(  14) C   1                  0.00000     4.61690   
  32. RY*(  15) C   1                  0.00000     4.34170   
  33. RY*(  16) C   1                  0.00000     4.60222   
  34. RY*(   1) C   2                  0.00304     1.22551   
  35. RY*(   2) C   2                  0.00222     1.48025   
  36. RY*(   3) C   2                  0.00179     1.41411   
  37. RY*(   4) C   2                  0.00102     1.91226   
  38. RY*(   5) C   2                  0.00094     1.83752   
  39. RY*(   6) C   2                  0.00053     0.91151   
  40. RY*(   7) C   2                  0.00015     1.86242   
  41. RY*(   8) C   2                  0.00003     2.38742   
  42. RY*(   9) C   2                  0.00001     1.68469   
  43. RY*(  10) C   2                  0.00000     4.61282   
  44. RY*(  11) C   2                  0.00000     4.47629   
  45. RY*(  12) C   2                  0.00000     4.46965   
  46. RY*(  13) C   2                  0.00000     9.83285   
  47. RY*(  14) C   2                  0.00000     4.61690   
  48. RY*(  15) C   2                  0.00000     4.34170   
  49. RY*(  16) C   2                  0.00000     4.60222   
  50. RY*(   1) H   3                  0.00125     0.78336   
  51. RY*(   1) H   4                  0.00125     0.78336   
  52. RY*(   1) O   5                  0.00239     1.43007   
  53. RY*(   2) O   5                  0.00170     1.57942   
  54. RY*(   3) O   5                  0.00026     1.91124   
  55. RY*(   4) O   5                  0.00010     2.06975   
  56. RY*(   5) O   5                  0.00002     1.57013   
  57. RY*(   6) O   5                  0.00002     1.95059   
  58. RY*(   7) O   5                  0.00000     2.14511   
  59. RY*(   8) O   5                  0.00000     4.27301   
  60. RY*(   9) O   5                  0.00000     1.90722   
  61. RY*(  10) O   5                  0.00000     4.43403   
  62. RY*(  11) O   5                  0.00000     1.69910   
  63. RY*(  12) O   5                  0.00000     4.02020   
  64. RY*(  13) O   5                  0.00000     7.84536   
  65. RY*(  14) O   5                  0.00000     4.29048   
  66. RY*(  15) O   5                  0.00000    11.76460   
  67. RY*(  16) O   5                  0.00000     4.60244   
  68. RY*(   1) O   6                  0.00239     1.43007   
  69. RY*(   2) O   6                  0.00170     1.57942   
  70. RY*(   3) O   6                  0.00026     1.91124   
  71. RY*(   4) O   6                  0.00010     2.06975   
  72. RY*(   5) O   6                  0.00002     1.57013   
  73. RY*(   6) O   6                  0.00002     1.95059   
  74. RY*(   7) O   6                  0.00000     2.14511   
  75. RY*(   8) O   6                  0.00000     4.27301   
  76. RY*(   9) O   6                  0.00000     1.90722   
  77. RY*(  10) O   6                  0.00000     4.43403   
  78. RY*(  11) O   6                  0.00000     1.69910   
  79. RY*(  12) O   6                  0.00000     4.02020   
  80. RY*(  13) O   6                  0.00000     7.84536   
  81. RY*(  14) O   6                  0.00000     4.29048   
  82. RY*(  15) O   6                  0.00000    11.76460   
  83. RY*(  16) O   6                  0.00000     4.60244   
  84. RY*(   1) H   7                  0.00049     0.85167   
  85. RY*(   1) H   8                  0.00090     0.85447   
  86. RY*(   1) H   9                  0.00049     0.85167   
  87. RY*(   1) H  10                  0.00090     0.85447   
  88. BD*(   1) C   1 - C   2          0.02136     0.64252   
  89. BD*(   1) C   1 - O   5          0.01170     0.60332   
  90. BD*(   1) C   1 - H   7          0.02102     0.70568   
  91. BD*(   1) C   1 - H   8          0.02109     0.71117   
  92. BD*(   1) C   2 - O   6          0.01170     0.60332   
  93. BD*(   1) C   2 - H   9          0.02102     0.70568   
  94. BD*(   1) C   2 - H  10          0.02109     0.71117   
  95. BD*(   1) H   3 - O   5          0.00422     0.80061   
  96. BD*(   1) H   4 - O   6          0.00422     0.80061   
       -------------------------------
              Total Lewis   33.82880  ( 99.4965%)
        Valence non-Lewis    0.13740  (  0.4041%)
        Rydberg non-Lewis    0.03381  (  0.0994%)
       -------------------------------
            Total unit  1   34.00000  (100.0000%)
           Charge unit  1    0.00000


 NATURAL LOCALIZED MOLECULAR ORBITAL (NLMO) ANALYSIS:

 Maximum off-diagonal element of DM in NLMO basis:  0.96221E-10

 Hybridization/Polarization Analysis of NLMOs in NAO Basis:
 NLMO/Occupancy/Percent from Parent NBO/ Atomic Hybrid Contributions
 -------------------------------------------------------------------------------
   1. (2.00000)  99.4740%  BD ( 1) C   1 C   2      
                           49.739%  C 1 s( 27.92%)p 2.57( 71.80%)d 0.01(  0.28%)
                           49.739%  C 2 s( 27.92%)p 2.57( 71.80%)d 0.01(  0.28%)
                            0.167%  H 3 s(100.00%)
                            0.167%  H 4 s(100.00%)
                            0.091%  O 5 s( 17.44%)p 4.54( 79.23%)d 0.19(  3.33%)
                            0.091%  O 6 s( 17.44%)p 4.54( 79.23%)d 0.19(  3.33%)
   2. (2.00000)  99.8328%  BD ( 1) C   1 O   5      
                           32.333%  C 1 s( 22.59%)p 3.41( 77.04%)d 0.02(  0.37%)
                            0.090%  C 2 s(  3.66%)p25.84( 94.67%)d 0.46(  1.67%)
                            0.010%  H 3 s(100.00%)
                           67.505%  O 5 s( 32.08%)p 2.11( 67.59%)d 0.01(  0.33%)
                            0.045%  H 9 s(100.00%)
   3. (2.00000)  99.3740%  BD ( 1) C   1 H   7      
                           58.867%  C 1 s( 25.43%)p 2.92( 74.28%)d 0.01(  0.29%)
                            0.349%  C 2 s(  9.97%)p 8.63( 86.09%)d 0.40(  3.94%)
                            0.013%  H 4 s(100.00%)
                            0.083%  O 5 s(  1.96%)p46.88( 92.04%)d 3.05(  6.00%)
                            0.162%  O 6 s( 37.81%)p 1.62( 61.35%)d 0.02(  0.84%)
                           40.516%  H 7 s(100.00%)
   4. (2.00000)  99.4120%  BD ( 1) C   1 H   8      
                           59.392%  C 1 s( 25.83%)p 2.86( 73.90%)d 0.01(  0.28%)
                            0.250%  C 2 s(  0.63%)p99.99( 95.47%)d 6.24(  3.90%)
                            0.077%  O 5 s(  1.94%)p46.97( 91.11%)d 3.59(  6.95%)
                            0.039%  O 6 s( 37.57%)p 1.64( 61.69%)d 0.02(  0.74%)
                           40.035%  H 8 s(100.00%)
                            0.197%  H10 s(100.00%)
   5. (2.00000)  99.8328%  BD ( 1) C   2 O   6      
                            0.090%  C 1 s(  3.66%)p25.84( 94.67%)d 0.46(  1.67%)
                           32.333%  C 2 s( 22.59%)p 3.41( 77.04%)d 0.02(  0.37%)
                            0.010%  H 4 s(100.00%)
                           67.505%  O 6 s( 32.08%)p 2.11( 67.59%)d 0.01(  0.33%)
                            0.045%  H 7 s(100.00%)
   6. (2.00000)  99.3740%  BD ( 1) C   2 H   9      
                            0.349%  C 1 s(  9.97%)p 8.63( 86.09%)d 0.40(  3.94%)
                           58.867%  C 2 s( 25.43%)p 2.92( 74.28%)d 0.01(  0.29%)
                            0.013%  H 3 s(100.00%)
                            0.162%  O 5 s( 37.81%)p 1.62( 61.35%)d 0.02(  0.84%)
                            0.083%  O 6 s(  1.96%)p46.88( 92.04%)d 3.05(  6.00%)
                           40.516%  H 9 s(100.00%)
   7. (2.00000)  99.4120%  BD ( 1) C   2 H  10      
                            0.250%  C 1 s(  0.63%)p99.99( 95.47%)d 6.24(  3.90%)
                           59.392%  C 2 s( 25.83%)p 2.86( 73.90%)d 0.01(  0.28%)
                            0.039%  O 5 s( 37.57%)p 1.64( 61.69%)d 0.02(  0.74%)
                            0.077%  O 6 s(  1.94%)p46.97( 91.11%)d 3.59(  6.95%)
                            0.197%  H 8 s(100.00%)
                           40.035%  H10 s(100.00%)
   8. (2.00000)  99.5299%  BD ( 1) H   3 O   5      
                            0.228%  C 1 s(  7.84%)p10.24( 80.22%)d 1.52( 11.94%)
                            0.196%  C 2 s( 28.92%)p 2.41( 69.67%)d 0.05(  1.41%)
                           25.699%  H 3 s(100.00%)
                           73.832%  O 5 s( 22.36%)p 3.46( 77.33%)d 0.01(  0.30%)
                            0.025%  H 8 s(100.00%)
                            0.012%  H 9 s(100.00%)
   9. (2.00000)  99.5299%  BD ( 1) H   4 O   6      
                            0.196%  C 1 s( 28.92%)p 2.41( 69.67%)d 0.05(  1.41%)
                            0.228%  C 2 s(  7.84%)p10.24( 80.22%)d 1.52( 11.94%)
                           25.699%  H 4 s(100.00%)
                           73.832%  O 6 s( 22.36%)p 3.46( 77.33%)d 0.01(  0.30%)
                            0.012%  H 7 s(100.00%)
                            0.025%  H10 s(100.00%)
  10. (2.00000)  99.9745%  CR ( 1) C   1            
                           99.980%  C 1 s( 99.99%)p 0.00(  0.01%)d 0.00(  0.00%)
                            0.010%  C 2 s( 19.73%)p 3.92( 77.32%)d 0.15(  2.95%)
  11. (2.00000)  99.9745%  CR ( 1) C   2            
                            0.010%  C 1 s( 19.73%)p 3.92( 77.32%)d 0.15(  2.95%)
                           99.980%  C 2 s( 99.99%)p 0.00(  0.01%)d 0.00(  0.00%)
  12. (2.00000)  99.9903%  CR ( 1) O   5            
                           99.991%  O 5 s(100.00%)p 0.00(  0.00%)d 0.00(  0.00%)
  13. (2.00000)  99.9903%  CR ( 1) O   6            
                           99.991%  O 6 s(100.00%)p 0.00(  0.00%)d 0.00(  0.00%)
  14. (2.00000)  99.2979%  LP ( 1) O   5            
                            0.327%  C 1 s( 11.01%)p 7.47( 82.22%)d 0.62(  6.77%)
                            0.119%  C 2 s( 57.37%)p 0.68( 39.27%)d 0.06(  3.36%)
                            0.016%  H 3 s(100.00%)
                           99.298%  O 5 s( 45.48%)p 1.20( 54.40%)d 0.00(  0.12%)
                            0.037%  H 7 s(100.00%)
                            0.168%  H 8 s(100.00%)
                            0.021%  H 9 s(100.00%)
                            0.011%  H10 s(100.00%)
  15. (2.00000)  98.5640%  LP ( 2) O   5            
                            0.633%  C 1 s(  0.09%)p99.99( 88.54%)d99.99( 11.37%)
                            0.044%  C 2 s( 23.62%)p 3.09( 72.93%)d 0.15(  3.45%)
                           98.564%  O 5 s(  0.20%)p99.99( 99.62%)d 0.91(  0.18%)
                            0.509%  H 7 s(100.00%)
                            0.229%  H 8 s(100.00%)
  16. (2.00000)  99.2979%  LP ( 1) O   6            
                            0.119%  C 1 s( 57.37%)p 0.68( 39.27%)d 0.06(  3.36%)
                            0.327%  C 2 s( 11.01%)p 7.47( 82.22%)d 0.62(  6.77%)
                            0.016%  H 4 s(100.00%)
                           99.298%  O 6 s( 45.48%)p 1.20( 54.40%)d 0.00(  0.12%)
                            0.021%  H 7 s(100.00%)
                            0.011%  H 8 s(100.00%)
                            0.037%  H 9 s(100.00%)
                            0.168%  H10 s(100.00%)
  17. (2.00000)  98.5640%  LP ( 2) O   6            
                            0.044%  C 1 s( 23.62%)p 3.09( 72.93%)d 0.15(  3.45%)
                            0.633%  C 2 s(  0.09%)p99.99( 88.54%)d99.99( 11.37%)
                           98.564%  O 6 s(  0.20%)p99.99( 99.62%)d 0.91(  0.18%)
                            0.509%  H 9 s(100.00%)
                            0.229%  H10 s(100.00%)
 Sorting of NBOs:                   13   12   11   10    2    5    9    8   16   14
 Sorting of NBOs:                    1    7    4    6    3   17   15   89   92   88
 Sorting of NBOs:                   93   90   94   91   50   51   95   96   84   86
 Sorting of NBOs:                   85   87   23   39   34   18   20   36   52   68
 Sorting of NBOs:                   35   19   56   72   53   69   26   42   62   78
 Sorting of NBOs:                   22   38   40   24   60   76   54   70   37   21
 Sorting of NBOs:                   57   73   55   71   58   74   41   25   63   79
 Sorting of NBOs:                   59   75   65   81   32   48   61   77   29   45
 Sorting of NBOs:                   28   44   33   49   67   83   27   43   47   31
 Sorting of NBOs:                   80   64   30   46   82   66
 Reordering of NBOs for storage:    13   12   11   10    2    5    9    8   16   14
 Reordering of NBOs for storage:     1    7    4    6    3   17   15   89   92   88
 Reordering of NBOs for storage:    93   90   94   91   95   96   50   51   84   86
 Reordering of NBOs for storage:    85   87   23   39   34   18   20   36   52   68
 Reordering of NBOs for storage:    35   19   56   72   53   69   26   42   62   78
 Reordering of NBOs for storage:    22   38   40   24   60   76   54   70   37   21
 Reordering of NBOs for storage:    57   73   55   71   58   74   41   25   63   79
 Reordering of NBOs for storage:    59   75   65   81   32   48   61   77   29   45
 Reordering of NBOs for storage:    28   44   33   49   67   83   27   43   47   31
 Reordering of NBOs for storage:    80   64   30   46   82   66
 Labels of output orbitals:  CR  CR  CR  CR  BD  BD  BD  BD  LP  LP  BD  BD  BD  BD  BD  LP  LP  BD* BD* BD* 
 Labels of output orbitals:  BD* BD* BD* BD* BD* BD* RY* RY* RY* RY* RY* RY* RY* RY* RY* RY* RY* RY* RY* RY* 
 Labels of output orbitals:  RY* RY* RY* RY* RY* RY* RY* RY* RY* RY* RY* RY* RY* RY* RY* RY* RY* RY* RY* RY* 
 Labels of output orbitals:  RY* RY* RY* RY* RY* RY* RY* RY* RY* RY* RY* RY* RY* RY* RY* RY* RY* RY* RY* RY* 
 Labels of output orbitals:  RY* RY* RY* RY* RY* RY* RY* RY* RY* RY* RY* RY* RY* RY* RY* RY* 
 Leave Link  607 at Tue Mar 16 17:00:46 2010, MaxMem=   91750400 cpu:       2.0
 (Enter /opt/g03/bin-pgi/l9999.exe)
 1\1\GINC-NODE2\SP\RHF\6-31G(2d)\C2H6O2\WUCH\16-Mar-2010\0\\#P HF/6-31G
 (2D) MAXDISK=96000MW POP=SAVEMIXED\\12-ethanediol Gaussian SP Calculat
 ion on node2.bme.utexas.edu\\0,1\C,0,0.280458,0.701252,0.523262\C,0,-0
 .280458,-0.701252,0.523262\H,0,0.209636,2.209163,-0.690751\H,0,-0.2096
 36,-2.209163,-0.690751\O,0,-0.280458,1.413052,-0.544781\O,0,0.280458,-
 1.413052,-0.544781\H,0,0.039906,1.17767,1.472709\H,0,1.362249,0.644112
 ,0.436718\H,0,-0.039906,-1.17767,1.472709\H,0,-1.362249,-0.644112,0.43
 6718\\Version=IA32L-G03RevC.02\State=1-A\HF=-228.9262024\RMSD=8.772e-0
 6\Dipole=0.,0.,0.5916209\PG=C02 [X(C2H6O2)]\\@


 REALITY IS FOR PEOPLE WHO CAN'T FACE SCIENCE FICTION.
 Job cpu time:  0 days  0 hours  0 minutes 22.4 seconds.
 File lengths (MBytes):  RWF=     11 Int=      0 D2E=      0 Chk=      7 Scr=      1
 Normal termination of Gaussian 03 at Tue Mar 16 17:00:47 2010.
