12-ethanediol Gaussian SP Calculation on node12.bme.utexas.edu          
SP        RMP2-FC                                                     Aug-CC-pVTZ         
Number of atoms                            I               10
Info1-9                                    I   N=           9
          19          19           0           0           0         110
           1           2           1
Charge                                     I                0
Multiplicity                               I                1
Number of electrons                        I               34
Number of alpha electrons                  I               17
Number of beta electrons                   I               17
Number of basis functions                  I              322
Number of independent functions            I              322
Number of point charges in /Mol/           I                0
Number of translation vectors              I                0
Atomic numbers                             I   N=          10
           6           6           1           1           8           8
           1           1           1           1
Nuclear charges                            R   N=          10
  6.00000000E+00  6.00000000E+00  1.00000000E+00  1.00000000E+00  8.00000000E+00
  8.00000000E+00  1.00000000E+00  1.00000000E+00  1.00000000E+00  1.00000000E+00
Current cartesian coordinates              R   N=          30
  5.29988812E-01  1.32517423E+00  9.88821876E-01 -5.29988812E-01 -1.32517423E+00
  9.88821876E-01  3.96154628E-01  4.17471305E+00 -1.30533022E+00 -3.96154628E-01
 -4.17471305E+00 -1.30533022E+00 -5.29988812E-01  2.67028129E+00 -1.02948689E+00
  5.29988812E-01 -2.67028129E+00 -1.02948689E+00  7.54114111E-02  2.22547377E+00
  2.78301668E+00  2.57427753E+00  1.21719528E+00  8.25277417E-01 -7.54114111E-02
 -2.22547377E+00  2.78301668E+00 -2.57427753E+00 -1.21719528E+00  8.25277417E-01
Force Field                                I                0
Int Atom Types                             I   N=          10
           0           0           0           0           0           0
           0           0           0           0
MM charges                                 R   N=          10
  0.00000000E+00  0.00000000E+00  0.00000000E+00  0.00000000E+00  0.00000000E+00
  0.00000000E+00  0.00000000E+00  0.00000000E+00  0.00000000E+00  0.00000000E+00
Integer atomic weights                     I   N=          10
          12          12           1           1          16          16
           1           1           1           1
Real atomic weights                        R   N=          10
  1.20000000E+01  1.20000000E+01  1.00782504E+00  1.00782504E+00  1.59949146E+01
  1.59949146E+01  1.00782504E+00  1.00782504E+00  1.00782504E+00  1.00782504E+00
Atom fragment info                         I   N=          10
           0           0           0           0           0           0
           0           0           0           0
Atom residue num                           I   N=          10
           0           0           0           0           0           0
           0           0           0           0
Nuclear spins                              I   N=          10
           0           0           1           1           0           0
           1           1           1           1
Nuclear ZEff                               R   N=          10
 -3.60000000E+00 -3.60000000E+00 -1.00000000E+00 -1.00000000E+00 -5.60000000E+00
 -5.60000000E+00 -1.00000000E+00 -1.00000000E+00 -1.00000000E+00 -1.00000000E+00
Nuclear QMom                               R   N=          10
  0.00000000E+00  0.00000000E+00  0.00000000E+00  0.00000000E+00  0.00000000E+00
  0.00000000E+00  0.00000000E+00  0.00000000E+00  0.00000000E+00  0.00000000E+00
Nuclear GFac                               R   N=          10
  0.00000000E+00  0.00000000E+00  2.79284600E+00  2.79284600E+00  0.00000000E+00
  0.00000000E+00  2.79284600E+00  2.79284600E+00  2.79284600E+00  2.79284600E+00
MicOpt                                     I   N=          10
          -1          -1          -1          -1          -1          -1
          -1          -1          -1          -1
Number of contracted shells                I              110
Number of primitive shells                 I              174
Pure/Cartesian d shells                    I                0
Pure/Cartesian f shells                    I                0
Highest angular momentum                   I                3
Largest degree of contraction              I                7
Shell types                                I   N=         110
           0           0           0           0           0           1
           1           1           1          -2          -2          -2
          -3          -3           0           0           0           0
           0           1           1           1           1          -2
          -2          -2          -3          -3           0           0
           0           0           1           1           1          -2
          -2           0           0           0           0           1
           1           1          -2          -2           0           0
           0           0           0           1           1           1
           1          -2          -2          -2          -3          -3
           0           0           0           0           0           1
           1           1           1          -2          -2          -2
          -3          -3           0           0           0           0
           1           1           1          -2          -2           0
           0           0           0           1           1           1
          -2          -2           0           0           0           0
           1           1           1          -2          -2           0
           0           0           0           1           1           1
          -2          -2
Number of primitives per shell             I   N=         110
           7           6           1           1           1           3
           1           1           1           1           1           1
           1           1           7           6           1           1
           1           3           1           1           1           1
           1           1           1           1           3           1
           1           1           1           1           1           1
           1           3           1           1           1           1
           1           1           1           1           7           6
           1           1           1           3           1           1
           1           1           1           1           1           1
           7           6           1           1           1           3
           1           1           1           1           1           1
           1           1           3           1           1           1
           1           1           1           1           1           3
           1           1           1           1           1           1
           1           1           3           1           1           1
           1           1           1           1           1           3
           1           1           1           1           1           1
           1           1
Shell to atom map                          I   N=         110
           1           1           1           1           1           1
           1           1           1           1           1           1
           1           1           2           2           2           2
           2           2           2           2           2           2
           2           2           2           2           3           3
           3           3           3           3           3           3
           3           4           4           4           4           4
           4           4           4           4           5           5
           5           5           5           5           5           5
           5           5           5           5           5           5
           6           6           6           6           6           6
           6           6           6           6           6           6
           6           6           7           7           7           7
           7           7           7           7           7           8
           8           8           8           8           8           8
           8           8           9           9           9           9
           9           9           9           9           9          10
          10          10          10          10          10          10
          10          10
Primitive exponents                        R   N=         174
  8.23600000E+03  1.23500000E+03  2.80800000E+02  7.92700000E+01  2.55900000E+01
  8.99700000E+00  3.31900000E+00  2.80800000E+02  7.92700000E+01  2.55900000E+01
  8.99700000E+00  3.31900000E+00  3.64300000E-01  9.05900000E-01  1.28500000E-01
  4.40200000E-02  1.87100000E+01  4.13300000E+00  1.20000000E+00  3.82700000E-01
  1.20900000E-01  3.56900000E-02  1.09700000E+00  3.18000000E-01  1.00000000E-01
  7.61000000E-01  2.68000000E-01  8.23600000E+03  1.23500000E+03  2.80800000E+02
  7.92700000E+01  2.55900000E+01  8.99700000E+00  3.31900000E+00  2.80800000E+02
  7.92700000E+01  2.55900000E+01  8.99700000E+00  3.31900000E+00  3.64300000E-01
  9.05900000E-01  1.28500000E-01  4.40200000E-02  1.87100000E+01  4.13300000E+00
  1.20000000E+00  3.82700000E-01  1.20900000E-01  3.56900000E-02  1.09700000E+00
  3.18000000E-01  1.00000000E-01  7.61000000E-01  2.68000000E-01  3.38700000E+01
  5.09500000E+00  1.15900000E+00  3.25800000E-01  1.02700000E-01  2.52600000E-02
  1.40700000E+00  3.88000000E-01  1.02000000E-01  1.05700000E+00  2.47000000E-01
  3.38700000E+01  5.09500000E+00  1.15900000E+00  3.25800000E-01  1.02700000E-01
  2.52600000E-02  1.40700000E+00  3.88000000E-01  1.02000000E-01  1.05700000E+00
  2.47000000E-01  1.53300000E+04  2.29900000E+03  5.22400000E+02  1.47300000E+02
  4.75500000E+01  1.67600000E+01  6.20700000E+00  5.22400000E+02  1.47300000E+02
  4.75500000E+01  1.67600000E+01  6.20700000E+00  6.88200000E-01  1.75200000E+00
  2.38400000E-01  7.37600000E-02  3.44600000E+01  7.74900000E+00  2.28000000E+00
  7.15600000E-01  2.14000000E-01  5.97400000E-02  2.31400000E+00  6.45000000E-01
  2.14000000E-01  1.42800000E+00  5.00000000E-01  1.53300000E+04  2.29900000E+03
  5.22400000E+02  1.47300000E+02  4.75500000E+01  1.67600000E+01  6.20700000E+00
  5.22400000E+02  1.47300000E+02  4.75500000E+01  1.67600000E+01  6.20700000E+00
  6.88200000E-01  1.75200000E+00  2.38400000E-01  7.37600000E-02  3.44600000E+01
  7.74900000E+00  2.28000000E+00  7.15600000E-01  2.14000000E-01  5.97400000E-02
  2.31400000E+00  6.45000000E-01  2.14000000E-01  1.42800000E+00  5.00000000E-01
  3.38700000E+01  5.09500000E+00  1.15900000E+00  3.25800000E-01  1.02700000E-01
  2.52600000E-02  1.40700000E+00  3.88000000E-01  1.02000000E-01  1.05700000E+00
  2.47000000E-01  3.38700000E+01  5.09500000E+00  1.15900000E+00  3.25800000E-01
  1.02700000E-01  2.52600000E-02  1.40700000E+00  3.88000000E-01  1.02000000E-01
  1.05700000E+00  2.47000000E-01  3.38700000E+01  5.09500000E+00  1.15900000E+00
  3.25800000E-01  1.02700000E-01  2.52600000E-02  1.40700000E+00  3.88000000E-01
  1.02000000E-01  1.05700000E+00  2.47000000E-01  3.38700000E+01  5.09500000E+00
  1.15900000E+00  3.25800000E-01  1.02700000E-01  2.52600000E-02  1.40700000E+00
  3.88000000E-01  1.02000000E-01  1.05700000E+00  2.47000000E-01
Contraction coefficients                   R   N=         174
  5.41978320E-04  4.19287382E-03  2.15221621E-02  8.35343220E-02  2.39582846E-01
  4.42852842E-01  3.51799562E-01 -5.94922494E-05 -1.14815831E-03 -1.00191374E-02
 -6.12194923E-02 -1.73269854E-01  1.07291519E+00  1.00000000E+00  1.00000000E+00
  1.00000000E+00  3.94263872E-02  2.44088985E-01  8.15492009E-01  1.00000000E+00
  1.00000000E+00  1.00000000E+00  1.00000000E+00  1.00000000E+00  1.00000000E+00
  1.00000000E+00  1.00000000E+00  5.41978320E-04  4.19287382E-03  2.15221621E-02
  8.35343220E-02  2.39582846E-01  4.42852842E-01  3.51799562E-01 -5.94922494E-05
 -1.14815831E-03 -1.00191374E-02 -6.12194923E-02 -1.73269854E-01  1.07291519E+00
  1.00000000E+00  1.00000000E+00  1.00000000E+00  3.94263872E-02  2.44088985E-01
  8.15492009E-01  1.00000000E+00  1.00000000E+00  1.00000000E+00  1.00000000E+00
  1.00000000E+00  1.00000000E+00  1.00000000E+00  1.00000000E+00  2.54948632E-02
  1.90362766E-01  8.52162022E-01  1.00000000E+00  1.00000000E+00  1.00000000E+00
  1.00000000E+00  1.00000000E+00  1.00000000E+00  1.00000000E+00  1.00000000E+00
  2.54948632E-02  1.90362766E-01  8.52162022E-01  1.00000000E+00  1.00000000E+00
  1.00000000E+00  1.00000000E+00  1.00000000E+00  1.00000000E+00  1.00000000E+00
  1.00000000E+00  5.19808943E-04  4.02025621E-03  2.07128267E-02  8.10105536E-02
  2.35962985E-01  4.42653446E-01  3.57064423E-01 -4.42115008E-05 -1.22591041E-03
 -1.05517725E-02 -6.74452633E-02 -1.71198607E-01  1.07329856E+00  1.00000000E+00
  1.00000000E+00  1.00000000E+00  4.11634896E-02  2.57762836E-01  8.02419274E-01
  1.00000000E+00  1.00000000E+00  1.00000000E+00  1.00000000E+00  1.00000000E+00
  1.00000000E+00  1.00000000E+00  1.00000000E+00  5.19808943E-04  4.02025621E-03
  2.07128267E-02  8.10105536E-02  2.35962985E-01  4.42653446E-01  3.57064423E-01
 -4.42115008E-05 -1.22591041E-03 -1.05517725E-02 -6.74452633E-02 -1.71198607E-01
  1.07329856E+00  1.00000000E+00  1.00000000E+00  1.00000000E+00  4.11634896E-02
  2.57762836E-01  8.02419274E-01  1.00000000E+00  1.00000000E+00  1.00000000E+00
  1.00000000E+00  1.00000000E+00  1.00000000E+00  1.00000000E+00  1.00000000E+00
  2.54948632E-02  1.90362766E-01  8.52162022E-01  1.00000000E+00  1.00000000E+00
  1.00000000E+00  1.00000000E+00  1.00000000E+00  1.00000000E+00  1.00000000E+00
  1.00000000E+00  2.54948632E-02  1.90362766E-01  8.52162022E-01  1.00000000E+00
  1.00000000E+00  1.00000000E+00  1.00000000E+00  1.00000000E+00  1.00000000E+00
  1.00000000E+00  1.00000000E+00  2.54948632E-02  1.90362766E-01  8.52162022E-01
  1.00000000E+00  1.00000000E+00  1.00000000E+00  1.00000000E+00  1.00000000E+00
  1.00000000E+00  1.00000000E+00  1.00000000E+00  2.54948632E-02  1.90362766E-01
  8.52162022E-01  1.00000000E+00  1.00000000E+00  1.00000000E+00  1.00000000E+00
  1.00000000E+00  1.00000000E+00  1.00000000E+00  1.00000000E+00
Coordinates of each shell                  R   N=         330
  5.29988812E-01  1.32517423E+00  9.88821876E-01  5.29988812E-01  1.32517423E+00
  9.88821876E-01  5.29988812E-01  1.32517423E+00  9.88821876E-01  5.29988812E-01
  1.32517423E+00  9.88821876E-01  5.29988812E-01  1.32517423E+00  9.88821876E-01
  5.29988812E-01  1.32517423E+00  9.88821876E-01  5.29988812E-01  1.32517423E+00
  9.88821876E-01  5.29988812E-01  1.32517423E+00  9.88821876E-01  5.29988812E-01
  1.32517423E+00  9.88821876E-01  5.29988812E-01  1.32517423E+00  9.88821876E-01
  5.29988812E-01  1.32517423E+00  9.88821876E-01  5.29988812E-01  1.32517423E+00
  9.88821876E-01  5.29988812E-01  1.32517423E+00  9.88821876E-01  5.29988812E-01
  1.32517423E+00  9.88821876E-01 -5.29988812E-01 -1.32517423E+00  9.88821876E-01
 -5.29988812E-01 -1.32517423E+00  9.88821876E-01 -5.29988812E-01 -1.32517423E+00
  9.88821876E-01 -5.29988812E-01 -1.32517423E+00  9.88821876E-01 -5.29988812E-01
 -1.32517423E+00  9.88821876E-01 -5.29988812E-01 -1.32517423E+00  9.88821876E-01
 -5.29988812E-01 -1.32517423E+00  9.88821876E-01 -5.29988812E-01 -1.32517423E+00
  9.88821876E-01 -5.29988812E-01 -1.32517423E+00  9.88821876E-01 -5.29988812E-01
 -1.32517423E+00  9.88821876E-01 -5.29988812E-01 -1.32517423E+00  9.88821876E-01
 -5.29988812E-01 -1.32517423E+00  9.88821876E-01 -5.29988812E-01 -1.32517423E+00
  9.88821876E-01 -5.29988812E-01 -1.32517423E+00  9.88821876E-01  3.96154628E-01
  4.17471305E+00 -1.30533022E+00  3.96154628E-01  4.17471305E+00 -1.30533022E+00
  3.96154628E-01  4.17471305E+00 -1.30533022E+00  3.96154628E-01  4.17471305E+00
 -1.30533022E+00  3.96154628E-01  4.17471305E+00 -1.30533022E+00  3.96154628E-01
  4.17471305E+00 -1.30533022E+00  3.96154628E-01  4.17471305E+00 -1.30533022E+00
  3.96154628E-01  4.17471305E+00 -1.30533022E+00  3.96154628E-01  4.17471305E+00
 -1.30533022E+00 -3.96154628E-01 -4.17471305E+00 -1.30533022E+00 -3.96154628E-01
 -4.17471305E+00 -1.30533022E+00 -3.96154628E-01 -4.17471305E+00 -1.30533022E+00
 -3.96154628E-01 -4.17471305E+00 -1.30533022E+00 -3.96154628E-01 -4.17471305E+00
 -1.30533022E+00 -3.96154628E-01 -4.17471305E+00 -1.30533022E+00 -3.96154628E-01
 -4.17471305E+00 -1.30533022E+00 -3.96154628E-01 -4.17471305E+00 -1.30533022E+00
 -3.96154628E-01 -4.17471305E+00 -1.30533022E+00 -5.29988812E-01  2.67028129E+00
 -1.02948689E+00 -5.29988812E-01  2.67028129E+00 -1.02948689E+00 -5.29988812E-01
  2.67028129E+00 -1.02948689E+00 -5.29988812E-01  2.67028129E+00 -1.02948689E+00
 -5.29988812E-01  2.67028129E+00 -1.02948689E+00 -5.29988812E-01  2.67028129E+00
 -1.02948689E+00 -5.29988812E-01  2.67028129E+00 -1.02948689E+00 -5.29988812E-01
  2.67028129E+00 -1.02948689E+00 -5.29988812E-01  2.67028129E+00 -1.02948689E+00
 -5.29988812E-01  2.67028129E+00 -1.02948689E+00 -5.29988812E-01  2.67028129E+00
 -1.02948689E+00 -5.29988812E-01  2.67028129E+00 -1.02948689E+00 -5.29988812E-01
  2.67028129E+00 -1.02948689E+00 -5.29988812E-01  2.67028129E+00 -1.02948689E+00
  5.29988812E-01 -2.67028129E+00 -1.02948689E+00  5.29988812E-01 -2.67028129E+00
 -1.02948689E+00  5.29988812E-01 -2.67028129E+00 -1.02948689E+00  5.29988812E-01
 -2.67028129E+00 -1.02948689E+00  5.29988812E-01 -2.67028129E+00 -1.02948689E+00
  5.29988812E-01 -2.67028129E+00 -1.02948689E+00  5.29988812E-01 -2.67028129E+00
 -1.02948689E+00  5.29988812E-01 -2.67028129E+00 -1.02948689E+00  5.29988812E-01
 -2.67028129E+00 -1.02948689E+00  5.29988812E-01 -2.67028129E+00 -1.02948689E+00
  5.29988812E-01 -2.67028129E+00 -1.02948689E+00  5.29988812E-01 -2.67028129E+00
 -1.02948689E+00  5.29988812E-01 -2.67028129E+00 -1.02948689E+00  5.29988812E-01
 -2.67028129E+00 -1.02948689E+00  7.54114111E-02  2.22547377E+00  2.78301668E+00
  7.54114111E-02  2.22547377E+00  2.78301668E+00  7.54114111E-02  2.22547377E+00
  2.78301668E+00  7.54114111E-02  2.22547377E+00  2.78301668E+00  7.54114111E-02
  2.22547377E+00  2.78301668E+00  7.54114111E-02  2.22547377E+00  2.78301668E+00
  7.54114111E-02  2.22547377E+00  2.78301668E+00  7.54114111E-02  2.22547377E+00
  2.78301668E+00  7.54114111E-02  2.22547377E+00  2.78301668E+00  2.57427753E+00
  1.21719528E+00  8.25277417E-01  2.57427753E+00  1.21719528E+00  8.25277417E-01
  2.57427753E+00  1.21719528E+00  8.25277417E-01  2.57427753E+00  1.21719528E+00
  8.25277417E-01  2.57427753E+00  1.21719528E+00  8.25277417E-01  2.57427753E+00
  1.21719528E+00  8.25277417E-01  2.57427753E+00  1.21719528E+00  8.25277417E-01
  2.57427753E+00  1.21719528E+00  8.25277417E-01  2.57427753E+00  1.21719528E+00
  8.25277417E-01 -7.54114111E-02 -2.22547377E+00  2.78301668E+00 -7.54114111E-02
 -2.22547377E+00  2.78301668E+00 -7.54114111E-02 -2.22547377E+00  2.78301668E+00
 -7.54114111E-02 -2.22547377E+00  2.78301668E+00 -7.54114111E-02 -2.22547377E+00
  2.78301668E+00 -7.54114111E-02 -2.22547377E+00  2.78301668E+00 -7.54114111E-02
 -2.22547377E+00  2.78301668E+00 -7.54114111E-02 -2.22547377E+00  2.78301668E+00
 -7.54114111E-02 -2.22547377E+00  2.78301668E+00 -2.57427753E+00 -1.21719528E+00
  8.25277417E-01 -2.57427753E+00 -1.21719528E+00  8.25277417E-01 -2.57427753E+00
 -1.21719528E+00  8.25277417E-01 -2.57427753E+00 -1.21719528E+00  8.25277417E-01
 -2.57427753E+00 -1.21719528E+00  8.25277417E-01 -2.57427753E+00 -1.21719528E+00
  8.25277417E-01 -2.57427753E+00 -1.21719528E+00  8.25277417E-01 -2.57427753E+00
 -1.21719528E+00  8.25277417E-01 -2.57427753E+00 -1.21719528E+00  8.25277417E-01
Constraint Structure                       R   N=          30
  5.29988812E-01  1.32517423E+00  9.88821876E-01 -5.29988812E-01 -1.32517423E+00
  9.88821876E-01  3.96154628E-01  4.17471305E+00 -1.30533022E+00 -3.96154628E-01
 -4.17471305E+00 -1.30533022E+00 -5.29988812E-01  2.67028129E+00 -1.02948689E+00
  5.29988812E-01 -2.67028129E+00 -1.02948689E+00  7.54114111E-02  2.22547377E+00
  2.78301668E+00  2.57427753E+00  1.21719528E+00  8.25277417E-01 -7.54114111E-02
 -2.22547377E+00  2.78301668E+00 -2.57427753E+00 -1.21719528E+00  8.25277417E-01
Num ILSW                                   I              100
ILSW                                       I   N=         100
           0           0           0           0           2           0
           0           0           0           0           0  8858370048
           0           0           0           0           0           0
           0           0           1           0           0           0
           1           0           0           0           0           0
           0           0      100000           0          -1           0
           0           0           0           0           0           0
           0           0           0           1           1           0
           0           0           1           0           0           0
           0           0           4          40           0           0
           0           0           0           0           0           0
           0           0           0           0           0           0
           0           0           0           0           0           0
           0           0           0           0           0           0
           0           0           0           0           0           0
           0           0           0           0           0           0
           0           0           0           0
Num RLSW                                   I               40
RLSW                                       R   N=          40
  1.00000000E+00  1.00000000E+00  1.00000000E+00  1.00000000E+00  1.00000000E+00
  0.00000000E+00  0.00000000E+00  1.00000000E+00  0.00000000E+00  0.00000000E+00
  0.00000000E+00  0.00000000E+00  1.00000000E+00  0.00000000E+00  0.00000000E+00
  0.00000000E+00  0.00000000E+00  1.00000000E+00  0.00000000E+00  0.00000000E+00
  0.00000000E+00  0.00000000E+00  1.00000000E+00  0.00000000E+00  0.00000000E+00
  0.00000000E+00  0.00000000E+00  1.00000000E+00  0.00000000E+00  0.00000000E+00
  0.00000000E+00  0.00000000E+00  0.00000000E+00  0.00000000E+00  0.00000000E+00
  0.00000000E+00  0.00000000E+00  0.00000000E+00  1.00000000E+00  1.00000000E+00
MxBond                                     I                4
NBond                                      I   N=          10
           4           4           1           1           2           2
           1           1           1           1
IBond                                      I   N=          40
           2           5           7           8           1           6
           9          10           5           0           0           0
           6           0           0           0           1           3
           0           0           2           4           0           0
           1           0           0           0           1           0
           0           0           2           0           0           0
           2           0           0           0
RBond                                      R   N=          40
  1.00000000E+00  1.00000000E+00  1.00000000E+00  1.00000000E+00  1.00000000E+00
  1.00000000E+00  1.00000000E+00  1.00000000E+00  1.00000000E+00  0.00000000E+00
  0.00000000E+00  0.00000000E+00  1.00000000E+00  0.00000000E+00  0.00000000E+00
  0.00000000E+00  1.00000000E+00  1.00000000E+00  0.00000000E+00  0.00000000E+00
  1.00000000E+00  1.00000000E+00  0.00000000E+00  0.00000000E+00  1.00000000E+00
  0.00000000E+00  0.00000000E+00  0.00000000E+00  1.00000000E+00  0.00000000E+00
  0.00000000E+00  0.00000000E+00  1.00000000E+00  0.00000000E+00  0.00000000E+00
  0.00000000E+00  1.00000000E+00  0.00000000E+00  0.00000000E+00  0.00000000E+00
Virial Ratio                               R      2.000683962926250E+00
SCF Energy                                 R     -2.290292848651785E+02
MP2 Energy                                 R     -2.298769189212782E+02
Total Energy                               R     -2.298769189212782E+02
Post-SCF wavefunction norm                 R      1.561107560408744E+00
RMS Density                                R      8.455945062719761E-09
External E-field                           R   N=          35
  0.00000000E+00  0.00000000E+00  0.00000000E+00  0.00000000E+00  0.00000000E+00
  0.00000000E+00  0.00000000E+00  0.00000000E+00  0.00000000E+00  0.00000000E+00
  0.00000000E+00  0.00000000E+00  0.00000000E+00  0.00000000E+00  0.00000000E+00
  0.00000000E+00  0.00000000E+00  0.00000000E+00  0.00000000E+00  0.00000000E+00
  0.00000000E+00  0.00000000E+00  0.00000000E+00  0.00000000E+00  0.00000000E+00
  0.00000000E+00  0.00000000E+00  0.00000000E+00  0.00000000E+00  0.00000000E+00
  0.00000000E+00  0.00000000E+00  0.00000000E+00  0.00000000E+00  0.00000000E+00
IOpCl                                      I                0
IROHF                                      I                0
Alpha Orbital Energies                     R   N=         322
 -2.05535272E+01 -2.05535253E+01 -1.12714804E+01 -1.12708072E+01 -1.37766620E+00
 -1.35731402E+00 -1.00454479E+00 -8.33319609E-01 -7.17491089E-01 -7.15189388E-01
 -6.12970476E-01 -6.07549671E-01 -5.95093278E-01 -5.33380571E-01 -4.76472960E-01
 -4.48061877E-01 -4.46883955E-01  2.93272609E-02  3.60991746E-02  4.24272405E-02
  4.42201903E-02  6.11707909E-02  6.42719547E-02  9.76525964E-02  1.11256957E-01
  1.14601666E-01  1.17411666E-01  1.34399554E-01  1.40975937E-01  1.45255850E-01
  1.68287618E-01  1.86495940E-01  1.89220603E-01  1.94265985E-01  1.98734586E-01
  2.10385040E-01  2.16632139E-01  2.61065294E-01  2.66194385E-01  2.73186056E-01
  2.82618083E-01  2.99413921E-01  2.99696409E-01  3.13185942E-01  3.23757075E-01
  3.26536414E-01  3.26936775E-01  3.43504303E-01  3.60570677E-01  3.65069825E-01
  3.71794283E-01  3.76006473E-01  3.82206146E-01  4.02952930E-01  4.13686119E-01
  4.18816580E-01  4.36519760E-01  4.42831060E-01  4.49784787E-01  4.59783727E-01
  4.61641973E-01  4.81858747E-01  4.87582740E-01  4.92345708E-01  4.93306993E-01
  5.06538221E-01  5.10391620E-01  5.25990473E-01  5.26091559E-01  5.45700734E-01
  5.69033450E-01  5.76593090E-01  5.96759072E-01  6.04191744E-01  6.09039192E-01
  6.35664339E-01  6.82382279E-01  7.06185532E-01  7.34680557E-01  7.40736230E-01
  7.63805623E-01  7.69841618E-01  7.82732920E-01  7.96255022E-01  8.03753230E-01
  8.07735215E-01  8.35016832E-01  8.43954985E-01  8.56901233E-01  8.84422490E-01
  8.88638338E-01  8.93213323E-01  8.93440202E-01  9.26205347E-01  9.34924695E-01
  9.48663826E-01  9.73616395E-01  9.74538337E-01  9.98165263E-01  1.00346953E+00
  1.01395192E+00  1.01734608E+00  1.03242630E+00  1.03538325E+00  1.04240740E+00
  1.05819020E+00  1.05855150E+00  1.07681355E+00  1.07939527E+00  1.08927336E+00
  1.09893121E+00  1.10776336E+00  1.13390358E+00  1.14204531E+00  1.16252982E+00
  1.16687794E+00  1.19074188E+00  1.20824108E+00  1.20833782E+00  1.22268046E+00
  1.22909932E+00  1.26082700E+00  1.27407625E+00  1.27932880E+00  1.28639870E+00
  1.35384908E+00  1.36178200E+00  1.38051903E+00  1.39403340E+00  1.40860030E+00
  1.42174638E+00  1.43842603E+00  1.46357362E+00  1.49864021E+00  1.51774076E+00
  1.53652641E+00  1.54690917E+00  1.55088076E+00  1.56931689E+00  1.59149608E+00
  1.60526944E+00  1.62831162E+00  1.63193076E+00  1.64017419E+00  1.66322858E+00
  1.68236949E+00  1.69131846E+00  1.71530230E+00  1.71689444E+00  1.74021487E+00
  1.78060571E+00  1.78263836E+00  1.79120249E+00  1.81735766E+00  1.82788925E+00
  1.87323063E+00  1.88986881E+00  1.89049076E+00  1.93012344E+00  1.94639469E+00
  1.99296214E+00  2.00521830E+00  2.02183823E+00  2.05296900E+00  2.11355636E+00
  2.11775695E+00  2.11965481E+00  2.12842773E+00  2.16958466E+00  2.18574150E+00
  2.21670375E+00  2.21808412E+00  2.30773109E+00  2.31229044E+00  2.37940896E+00
  2.41713017E+00  2.45714532E+00  2.46670999E+00  2.47805376E+00  2.51744155E+00
  2.56568991E+00  2.58682493E+00  2.59399526E+00  2.60351368E+00  2.70364131E+00
  2.70874139E+00  2.74903740E+00  2.82222275E+00  2.82590026E+00  2.83994449E+00
  2.85653596E+00  2.85990995E+00  2.89773553E+00  2.91152038E+00  2.97639893E+00
  2.99599205E+00  3.00848542E+00  3.02658250E+00  3.06454841E+00  3.06715542E+00
  3.11223696E+00  3.14561229E+00  3.16632098E+00  3.23321864E+00  3.27980479E+00
  3.37911587E+00  3.46888345E+00  3.49700200E+00  3.49991883E+00  3.60837649E+00
  3.61149999E+00  3.63944454E+00  3.64455665E+00  3.66537504E+00  3.73842952E+00
  3.74334611E+00  3.80566894E+00  3.84108469E+00  3.87540828E+00  3.92319536E+00
  3.93391329E+00  3.95958614E+00  3.99749528E+00  4.00283576E+00  4.02455495E+00
  4.07476789E+00  4.07773637E+00  4.09270451E+00  4.12454708E+00  4.13745910E+00
  4.14231426E+00  4.17238384E+00  4.25864064E+00  4.29184598E+00  4.29708507E+00
  4.32663693E+00  4.33144753E+00  4.36508015E+00  4.39761787E+00  4.41696126E+00
  4.44529356E+00  4.45457009E+00  4.54348547E+00  4.54405329E+00  4.55375475E+00
  4.61462524E+00  4.61777356E+00  4.62743700E+00  4.66384484E+00  4.68095777E+00
  4.73166141E+00  4.78650496E+00  4.83625397E+00  4.87059461E+00  4.87244718E+00
  4.90936133E+00  4.97815775E+00  4.98235475E+00  5.02725125E+00  5.08014192E+00
  5.11105940E+00  5.12006271E+00  5.13861992E+00  5.17595097E+00  5.23935539E+00
  5.25038976E+00  5.28404345E+00  5.30962604E+00  5.35678646E+00  5.36908055E+00
  5.42841551E+00  5.43490275E+00  5.46637956E+00  5.53805832E+00  5.54912005E+00
  5.58524100E+00  5.61767687E+00  5.64269161E+00  5.68338484E+00  5.81102133E+00
  5.83031909E+00  5.90384496E+00  5.95233341E+00  6.01115706E+00  6.04264878E+00