12-ethanediol Gaussian SP Calculation on node9.bme.utexas.edu           
SP        RMP2-FC                                                     6-311G(d,p)         
Number of atoms                            I               10
Info1-9                                    I   N=           9
          21          21           0           0           0         110
           1           2           1
Charge                                     I                0
Multiplicity                               I                1
Number of electrons                        I               34
Number of alpha electrons                  I               17
Number of beta electrons                   I               17
Number of basis functions                  I              108
Number of independent functions            I              108
Number of point charges in /Mol/           I                0
Number of translation vectors              I                0
Atomic numbers                             I   N=          10
           6           6           1           1           8           8
           1           1           1           1
Nuclear charges                            R   N=          10
  6.00000000E+00  6.00000000E+00  1.00000000E+00  1.00000000E+00  8.00000000E+00
  8.00000000E+00  1.00000000E+00  1.00000000E+00  1.00000000E+00  1.00000000E+00
Current cartesian coordinates              R   N=          30
  5.29988812E-01  1.32517423E+00  9.88821876E-01 -5.29988812E-01 -1.32517423E+00
  9.88821876E-01  3.96154628E-01  4.17471305E+00 -1.30533022E+00 -3.96154628E-01
 -4.17471305E+00 -1.30533022E+00 -5.29988812E-01  2.67028129E+00 -1.02948689E+00
  5.29988812E-01 -2.67028129E+00 -1.02948689E+00  7.54114111E-02  2.22547377E+00
  2.78301668E+00  2.57427753E+00  1.21719528E+00  8.25277417E-01 -7.54114111E-02
 -2.22547377E+00  2.78301668E+00 -2.57427753E+00 -1.21719528E+00  8.25277417E-01
Force Field                                I                0
Int Atom Types                             I   N=          10
           0           0           0           0           0           0
           0           0           0           0
MM charges                                 R   N=          10
  0.00000000E+00  0.00000000E+00  0.00000000E+00  0.00000000E+00  0.00000000E+00
  0.00000000E+00  0.00000000E+00  0.00000000E+00  0.00000000E+00  0.00000000E+00
Integer atomic weights                     I   N=          10
          12          12           1           1          16          16
           1           1           1           1
Real atomic weights                        R   N=          10
  1.20000000E+01  1.20000000E+01  1.00782504E+00  1.00782504E+00  1.59949146E+01
  1.59949146E+01  1.00782504E+00  1.00782504E+00  1.00782504E+00  1.00782504E+00
Atom fragment info                         I   N=          10
           0           0           0           0           0           0
           0           0           0           0
Atom residue num                           I   N=          10
           0           0           0           0           0           0
           0           0           0           0
Nuclear spins                              I   N=          10
           0           0           1           1           0           0
           1           1           1           1
Nuclear ZEff                               R   N=          10
 -3.60000000E+00 -3.60000000E+00 -1.00000000E+00 -1.00000000E+00 -5.60000000E+00
 -5.60000000E+00 -1.00000000E+00 -1.00000000E+00 -1.00000000E+00 -1.00000000E+00
Nuclear QMom                               R   N=          10
  0.00000000E+00  0.00000000E+00  0.00000000E+00  0.00000000E+00  0.00000000E+00
  0.00000000E+00  0.00000000E+00  0.00000000E+00  0.00000000E+00  0.00000000E+00
Nuclear GFac                               R   N=          10
  0.00000000E+00  0.00000000E+00  2.79284600E+00  2.79284600E+00  0.00000000E+00
  0.00000000E+00  2.79284600E+00  2.79284600E+00  2.79284600E+00  2.79284600E+00
MicOpt                                     I   N=          10
          -1          -1          -1          -1          -1          -1
          -1          -1          -1          -1
Number of contracted shells                I               44
Number of primitive shells                 I               84
Pure/Cartesian d shells                    I                0
Pure/Cartesian f shells                    I                0
Highest angular momentum                   I                2
Largest degree of contraction              I                6
Shell types                                I   N=          44
           0          -1          -1          -1          -2           0
          -1          -1          -1          -2           0           0
           0           1           0           0           0           1
           0          -1          -1          -1          -2           0
          -1          -1          -1          -2           0           0
           0           1           0           0           0           1
           0           0           0           1           0           0
           0           1
Number of primitives per shell             I   N=          44
           6           3           1           1           1           6
           3           1           1           1           3           1
           1           1           3           1           1           1
           6           3           1           1           1           6
           3           1           1           1           3           1
           1           1           3           1           1           1
           3           1           1           1           3           1
           1           1
Shell to atom map                          I   N=          44
           1           1           1           1           1           2
           2           2           2           2           3           3
           3           3           4           4           4           4
           5           5           5           5           5           6
           6           6           6           6           7           7
           7           7           8           8           8           8
           9           9           9           9          10          10
          10          10
Primitive exponents                        R   N=          84
  4.56324000E+03  6.82024000E+02  1.54973000E+02  4.44553000E+01  1.30290000E+01
  1.82773000E+00  2.09642000E+01  4.80331000E+00  1.45933000E+00  4.83456000E-01
  1.45585000E-01  6.26000000E-01  4.56324000E+03  6.82024000E+02  1.54973000E+02
  4.44553000E+01  1.30290000E+01  1.82773000E+00  2.09642000E+01  4.80331000E+00
  1.45933000E+00  4.83456000E-01  1.45585000E-01  6.26000000E-01  3.38650000E+01
  5.09479000E+00  1.15879000E+00  3.25840000E-01  1.02741000E-01  7.50000000E-01
  3.38650000E+01  5.09479000E+00  1.15879000E+00  3.25840000E-01  1.02741000E-01
  7.50000000E-01  8.58850000E+03  1.29723000E+03  2.99296000E+02  8.73771000E+01
  2.56789000E+01  3.74004000E+00  4.21175000E+01  9.62837000E+00  2.85332000E+00
  9.05661000E-01  2.55611000E-01  1.29200000E+00  8.58850000E+03  1.29723000E+03
  2.99296000E+02  8.73771000E+01  2.56789000E+01  3.74004000E+00  4.21175000E+01
  9.62837000E+00  2.85332000E+00  9.05661000E-01  2.55611000E-01  1.29200000E+00
  3.38650000E+01  5.09479000E+00  1.15879000E+00  3.25840000E-01  1.02741000E-01
  7.50000000E-01  3.38650000E+01  5.09479000E+00  1.15879000E+00  3.25840000E-01
  1.02741000E-01  7.50000000E-01  3.38650000E+01  5.09479000E+00  1.15879000E+00
  3.25840000E-01  1.02741000E-01  7.50000000E-01  3.38650000E+01  5.09479000E+00
  1.15879000E+00  3.25840000E-01  1.02741000E-01  7.50000000E-01
Contraction coefficients                   R   N=          84
  1.96665025E-03  1.52306019E-02  7.61269097E-02  2.60801033E-01  6.16462078E-01
  2.21006028E-01  1.14660081E-01  9.19999648E-01 -3.03068213E-03  1.00000000E+00
  1.00000000E+00  1.00000000E+00  1.96665025E-03  1.52306019E-02  7.61269097E-02
  2.60801033E-01  6.16462078E-01  2.21006028E-01  1.14660081E-01  9.19999648E-01
 -3.03068213E-03  1.00000000E+00  1.00000000E+00  1.00000000E+00  2.54938145E-02
  1.90373109E-01  8.52161486E-01  1.00000000E+00  1.00000000E+00  1.00000000E+00
  2.54938145E-02  1.90373109E-01  8.52161486E-01  1.00000000E+00  1.00000000E+00
  1.00000000E+00  1.89515008E-03  1.43859006E-02  7.07320031E-02  2.40001011E-01
  5.94797026E-01  2.80802012E-01  1.13889012E-01  9.20811101E-01 -3.27447036E-03
  1.00000000E+00  1.00000000E+00  1.00000000E+00  1.89515008E-03  1.43859006E-02
  7.07320031E-02  2.40001011E-01  5.94797026E-01  2.80802012E-01  1.13889012E-01
  9.20811101E-01 -3.27447036E-03  1.00000000E+00  1.00000000E+00  1.00000000E+00
  2.54938145E-02  1.90373109E-01  8.52161486E-01  1.00000000E+00  1.00000000E+00
  1.00000000E+00  2.54938145E-02  1.90373109E-01  8.52161486E-01  1.00000000E+00
  1.00000000E+00  1.00000000E+00  2.54938145E-02  1.90373109E-01  8.52161486E-01
  1.00000000E+00  1.00000000E+00  1.00000000E+00  2.54938145E-02  1.90373109E-01
  8.52161486E-01  1.00000000E+00  1.00000000E+00  1.00000000E+00
P(S=P) Contraction coefficients            R   N=          84
  0.00000000E+00  0.00000000E+00  0.00000000E+00  0.00000000E+00  0.00000000E+00
  0.00000000E+00  4.02486927E-02  2.37593957E-01  8.15853851E-01  1.00000000E+00
  1.00000000E+00  0.00000000E+00  0.00000000E+00  0.00000000E+00  0.00000000E+00
  0.00000000E+00  0.00000000E+00  0.00000000E+00  4.02486927E-02  2.37593957E-01
  8.15853851E-01  1.00000000E+00  1.00000000E+00  0.00000000E+00  0.00000000E+00
  0.00000000E+00  0.00000000E+00  0.00000000E+00  0.00000000E+00  0.00000000E+00
  0.00000000E+00  0.00000000E+00  0.00000000E+00  0.00000000E+00  0.00000000E+00
  0.00000000E+00  0.00000000E+00  0.00000000E+00  0.00000000E+00  0.00000000E+00
  0.00000000E+00  0.00000000E+00  3.65113974E-02  2.37152983E-01  8.19701941E-01
  1.00000000E+00  1.00000000E+00  0.00000000E+00  0.00000000E+00  0.00000000E+00
  0.00000000E+00  0.00000000E+00  0.00000000E+00  0.00000000E+00  3.65113974E-02
  2.37152983E-01  8.19701941E-01  1.00000000E+00  1.00000000E+00  0.00000000E+00
  0.00000000E+00  0.00000000E+00  0.00000000E+00  0.00000000E+00  0.00000000E+00
  0.00000000E+00  0.00000000E+00  0.00000000E+00  0.00000000E+00  0.00000000E+00
  0.00000000E+00  0.00000000E+00  0.00000000E+00  0.00000000E+00  0.00000000E+00
  0.00000000E+00  0.00000000E+00  0.00000000E+00  0.00000000E+00  0.00000000E+00
  0.00000000E+00  0.00000000E+00  0.00000000E+00  0.00000000E+00
Coordinates of each shell                  R   N=         132
  5.29988812E-01  1.32517423E+00  9.88821876E-01  5.29988812E-01  1.32517423E+00
  9.88821876E-01  5.29988812E-01  1.32517423E+00  9.88821876E-01  5.29988812E-01
  1.32517423E+00  9.88821876E-01  5.29988812E-01  1.32517423E+00  9.88821876E-01
 -5.29988812E-01 -1.32517423E+00  9.88821876E-01 -5.29988812E-01 -1.32517423E+00
  9.88821876E-01 -5.29988812E-01 -1.32517423E+00  9.88821876E-01 -5.29988812E-01
 -1.32517423E+00  9.88821876E-01 -5.29988812E-01 -1.32517423E+00  9.88821876E-01
  3.96154628E-01  4.17471305E+00 -1.30533022E+00  3.96154628E-01  4.17471305E+00
 -1.30533022E+00  3.96154628E-01  4.17471305E+00 -1.30533022E+00  3.96154628E-01
  4.17471305E+00 -1.30533022E+00 -3.96154628E-01 -4.17471305E+00 -1.30533022E+00
 -3.96154628E-01 -4.17471305E+00 -1.30533022E+00 -3.96154628E-01 -4.17471305E+00
 -1.30533022E+00 -3.96154628E-01 -4.17471305E+00 -1.30533022E+00 -5.29988812E-01
  2.67028129E+00 -1.02948689E+00 -5.29988812E-01  2.67028129E+00 -1.02948689E+00
 -5.29988812E-01  2.67028129E+00 -1.02948689E+00 -5.29988812E-01  2.67028129E+00
 -1.02948689E+00 -5.29988812E-01  2.67028129E+00 -1.02948689E+00  5.29988812E-01
 -2.67028129E+00 -1.02948689E+00  5.29988812E-01 -2.67028129E+00 -1.02948689E+00
  5.29988812E-01 -2.67028129E+00 -1.02948689E+00  5.29988812E-01 -2.67028129E+00
 -1.02948689E+00  5.29988812E-01 -2.67028129E+00 -1.02948689E+00  7.54114111E-02
  2.22547377E+00  2.78301668E+00  7.54114111E-02  2.22547377E+00  2.78301668E+00
  7.54114111E-02  2.22547377E+00  2.78301668E+00  7.54114111E-02  2.22547377E+00
  2.78301668E+00  2.57427753E+00  1.21719528E+00  8.25277417E-01  2.57427753E+00
  1.21719528E+00  8.25277417E-01  2.57427753E+00  1.21719528E+00  8.25277417E-01
  2.57427753E+00  1.21719528E+00  8.25277417E-01 -7.54114111E-02 -2.22547377E+00
  2.78301668E+00 -7.54114111E-02 -2.22547377E+00  2.78301668E+00 -7.54114111E-02
 -2.22547377E+00  2.78301668E+00 -7.54114111E-02 -2.22547377E+00  2.78301668E+00
 -2.57427753E+00 -1.21719528E+00  8.25277417E-01 -2.57427753E+00 -1.21719528E+00
  8.25277417E-01 -2.57427753E+00 -1.21719528E+00  8.25277417E-01 -2.57427753E+00
 -1.21719528E+00  8.25277417E-01
Constraint Structure                       R   N=          30
  5.29988812E-01  1.32517423E+00  9.88821876E-01 -5.29988812E-01 -1.32517423E+00
  9.88821876E-01  3.96154628E-01  4.17471305E+00 -1.30533022E+00 -3.96154628E-01
 -4.17471305E+00 -1.30533022E+00 -5.29988812E-01  2.67028129E+00 -1.02948689E+00
  5.29988812E-01 -2.67028129E+00 -1.02948689E+00  7.54114111E-02  2.22547377E+00
  2.78301668E+00  2.57427753E+00  1.21719528E+00  8.25277417E-01 -7.54114111E-02
 -2.22547377E+00  2.78301668E+00 -2.57427753E+00 -1.21719528E+00  8.25277417E-01
Num ILSW                                   I              100
ILSW                                       I   N=         100
           0           0           0           0           2           0
           0           0           0           0           0 67108864000
           0           0           0           0           0           0
           0           0           1           0           0           0
           1           0           0           0           0           0
           0           0      100000           0          -1           0
           0           0           0           0           0           0
           0           0           0           1           0           0
           0           0           1           0           0           0
           0           0           4          40           0           0
           0           0           0           0           0           0
           0           0           0           0           0           0
           0           0           0           0           0           0
           0           0           0           0           0           0
           0           0           0           0           0           0
           0           0           0           0           0           0
           0           0           0           0
Num RLSW                                   I               40
RLSW                                       R   N=          40
  1.00000000E+00  1.00000000E+00  1.00000000E+00  1.00000000E+00  1.00000000E+00
  0.00000000E+00  0.00000000E+00  1.00000000E+00  0.00000000E+00  0.00000000E+00
  0.00000000E+00  0.00000000E+00  1.00000000E+00  0.00000000E+00  0.00000000E+00
  0.00000000E+00  0.00000000E+00  1.00000000E+00  0.00000000E+00  0.00000000E+00
  0.00000000E+00  0.00000000E+00  1.00000000E+00  0.00000000E+00  0.00000000E+00
  0.00000000E+00  0.00000000E+00  1.00000000E+00  0.00000000E+00  0.00000000E+00
  0.00000000E+00  0.00000000E+00  0.00000000E+00  0.00000000E+00  0.00000000E+00
  0.00000000E+00  0.00000000E+00  0.00000000E+00  1.00000000E+00  1.00000000E+00
MxBond                                     I                4
NBond                                      I   N=          10
           4           4           1           1           2           2
           1           1           1           1
IBond                                      I   N=          40
           2           5           7           8           1           6
           9          10           5           0           0           0
           6           0           0           0           1           3
           0           0           2           4           0           0
           1           0           0           0           1           0
           0           0           2           0           0           0
           2           0           0           0
RBond                                      R   N=          40
  1.00000000E+00  1.00000000E+00  1.00000000E+00  1.00000000E+00  1.00000000E+00
  1.00000000E+00  1.00000000E+00  1.00000000E+00  1.00000000E+00  0.00000000E+00
  0.00000000E+00  0.00000000E+00  1.00000000E+00  0.00000000E+00  0.00000000E+00
  0.00000000E+00  1.00000000E+00  1.00000000E+00  0.00000000E+00  0.00000000E+00
  1.00000000E+00  1.00000000E+00  0.00000000E+00  0.00000000E+00  1.00000000E+00
  0.00000000E+00  0.00000000E+00  0.00000000E+00  1.00000000E+00  0.00000000E+00
  0.00000000E+00  0.00000000E+00  1.00000000E+00  0.00000000E+00  0.00000000E+00
  0.00000000E+00  1.00000000E+00  0.00000000E+00  0.00000000E+00  0.00000000E+00
Virial Ratio                               R      1.999756096987637E+00
SCF Energy                                 R     -2.289965760706580E+02
MP2 Energy                                 R     -2.296981320891738E+02
Total Energy                               R     -2.296981320891738E+02
Post-SCF wavefunction norm                 R      1.091047805690310E+00
RMS Density                                R      3.743064474496553E-09
External E-field                           R   N=          35
  0.00000000E+00  0.00000000E+00  0.00000000E+00  0.00000000E+00  0.00000000E+00
  0.00000000E+00  0.00000000E+00  0.00000000E+00  0.00000000E+00  0.00000000E+00
  0.00000000E+00  0.00000000E+00  0.00000000E+00  0.00000000E+00  0.00000000E+00
  0.00000000E+00  0.00000000E+00  0.00000000E+00  0.00000000E+00  0.00000000E+00
  0.00000000E+00  0.00000000E+00  0.00000000E+00  0.00000000E+00  0.00000000E+00
  0.00000000E+00  0.00000000E+00  0.00000000E+00  0.00000000E+00  0.00000000E+00
  0.00000000E+00  0.00000000E+00  0.00000000E+00  0.00000000E+00  0.00000000E+00
IOpCl                                      I                0
IROHF                                      I                0
Alpha Orbital Energies                     R   N=         108
 -2.05398720E+01 -2.05398704E+01 -1.12686698E+01 -1.12679990E+01 -1.37141310E+00
 -1.35075481E+00 -1.00139871E+00 -8.30268370E-01 -7.12599276E-01 -7.10419267E-01
 -6.08198530E-01 -6.03165747E-01 -5.89578529E-01 -5.26869206E-01 -4.71872506E-01
 -4.42740111E-01 -4.41599586E-01  1.54662816E-01  1.70893029E-01  1.93217758E-01
  2.17317400E-01  2.31259001E-01  2.41816506E-01  3.59347505E-01  3.80938717E-01
  3.81725930E-01  4.98435027E-01  5.46601996E-01  5.90138886E-01  6.24243941E-01
  6.38741870E-01  7.04573423E-01  7.05093378E-01  7.62034537E-01  7.66859835E-01
  7.98894529E-01  8.12414743E-01  8.36218830E-01  9.26000167E-01  9.90571158E-01
  1.05848216E+00  1.08961848E+00  1.10525879E+00  1.12996205E+00  1.16313899E+00
  1.25480353E+00  1.35423491E+00  1.38234275E+00  1.54716611E+00  1.55201787E+00
  1.62409547E+00  1.63611974E+00  1.64257769E+00  1.68226501E+00  1.78278599E+00
  1.79624302E+00  1.80573985E+00  1.82838598E+00  1.90472555E+00  1.91615374E+00
  1.93599188E+00  1.95547791E+00  2.00258167E+00  2.06325733E+00  2.20819523E+00
  2.21589764E+00  2.28615369E+00  2.35969568E+00  2.39897791E+00  2.40211144E+00
  2.54704466E+00  2.55955453E+00  2.69884380E+00  2.73983454E+00  2.76552418E+00
  2.77243921E+00  2.80777354E+00  2.84688525E+00  2.91220346E+00  2.93211116E+00
  3.00509467E+00  3.10994381E+00  3.27609224E+00  3.39000043E+00  3.51458638E+00
  3.51972134E+00  3.57734025E+00  3.61195484E+00  3.66607178E+00  3.71300672E+00
  3.74551116E+00  4.17625447E+00  4.18366906E+00  4.25883757E+00  4.27645680E+00
  4.38013129E+00  4.40375831E+00  4.65910586E+00  5.42697843E+00  5.46692622E+00
  5.83513674E+00  5.84962672E+00  6.26196671E+00  6.30164815E+00  2.49747084E+01
  2.49875018E+01  5.15891127E+01  5.16535636E+01
Alpha MO coefficients                      R   N=       11664
 -2.66812051E-06 -2.04473062E-05 -1.75863024E-05 -5.64452499E-06 -2.23227183E-05
  3.98152000E-05 -4.19371295E-05  1.48454987E-04 -1.15034599E-04  7.96855903E-04
 -1.80227647E-04 -1.18124616E-04 -4.12017934E-05  5.22165821E-05  2.08114846E-05
 -7.07490484E-05 -1.67328037E-05 -4.58172852E-05  2.66812051E-06  2.04473062E-05
 -1.75863024E-05 -5.64452499E-06  2.23227183E-05 -3.98152000E-05 -4.19371295E-05
  1.48454987E-04  1.15034599E-04 -7.96855903E-04 -1.80227647E-04 -1.18124616E-04
  4.12017934E-05 -5.22165821E-05  2.08114846E-05 -7.07490484E-05  1.67328037E-05
  4.58172852E-05  1.45387616E-04  8.81354416E-05  5.71256800E-05 -4.66082020E-06
 -6.03471133E-05  4.50529024E-05 -1.45387616E-04 -8.81354416E-05 -5.71256800E-05
 -4.66082020E-06 -6.03471133E-05 -4.50529024E-05  3.89928501E-01  3.33518404E-01
  9.64500209E-04  3.83761017E-04  6.46117568E-04  3.99011913E-03 -3.55661235E-04
 -1.55207971E-04 -2.30895075E-04 -6.07824133E-04  1.21790338E-05  1.14509450E-04
 -9.31206104E-05 -8.02065809E-06 -6.38811532E-05  9.27930550E-05  3.04971491E-05
 -2.47136848E-05 -3.89928501E-01 -3.33518404E-01  9.64500209E-04  3.83761017E-04
 -6.46117568E-04 -3.99011913E-03 -3.55661235E-04 -1.55207971E-04  2.30895075E-04
  6.07824133E-04  1.21790338E-05  1.14509450E-04  9.31206104E-05  8.02065809E-06
 -6.38811532E-05  9.27930550E-05 -3.04971491E-05  2.47136848E-05  1.20232498E-05
 -1.59216399E-04 -2.96527172E-05  1.22454522E-05  1.22521072E-05  2.91732849E-05
  5.47634041E-06 -4.14744578E-05 -1.65927299E-05  3.74512385E-06 -1.27946841E-05
  1.48028983E-05 -1.20232498E-05  1.59216399E-04  2.96527172E-05  1.22454522E-05
  1.22521072E-05 -2.91732849E-05 -5.47634041E-06  4.14744578E-05  1.65927299E-05
  3.74512385E-06 -1.27946841E-05 -1.48028983E-05 -1.70831229E-06 -1.98659179E-05
 -1.92901370E-05 -1.06171813E-06 -1.90289791E-05  2.64565969E-05 -2.69403212E-05
  1.61673659E-04 -1.31914007E-04  3.88077458E-04 -1.47509615E-04 -1.37656175E-06
 -2.78796632E-04  2.13012175E-05  3.34030251E-05 -8.17253070E-05 -2.36599958E-05
 -3.93124241E-05 -1.70831229E-06 -1.98659179E-05  1.92901370E-05  1.06171813E-06
 -1.90289791E-05  2.64565969E-05  2.69403212E-05 -1.61673659E-04 -1.31914007E-04
  3.88077458E-04  1.47509615E-04  1.37656175E-06 -2.78796632E-04  2.13012175E-05
 -3.34030251E-05  8.17253070E-05 -2.36599958E-05 -3.93124241E-05  1.50845992E-04
  2.48841146E-05  1.42768728E-05  4.49867165E-06 -5.62356383E-05  4.21377202E-05
  1.50845992E-04  2.48841146E-05  1.42768728E-05 -4.49867165E-06  5.62356383E-05
  4.21377202E-05  3.89928643E-01  3.33512704E-01  9.66579706E-04  3.87412462E-04
  6.45424883E-04  4.04193666E-03 -3.62021215E-04 -1.73236511E-04 -2.25093344E-04
 -7.50392811E-04  1.51649523E-05  2.67417443E-04 -1.28336628E-04 -4.25970511E-06
 -6.58659609E-05  9.57870593E-05  3.64417629E-05 -2.00677423E-05  3.89928643E-01
  3.33512704E-01 -9.66579706E-04 -3.87412462E-04  6.45424883E-04  4.04193666E-03
  3.62021215E-04  1.73236511E-04 -2.25093344E-04 -7.50392811E-04 -1.51649523E-05
 -2.67417443E-04 -1.28336628E-04 -4.25970511E-06  6.58659609E-05 -9.57870593E-05
  3.64417629E-05 -2.00677423E-05  1.74622316E-06  1.22977401E-06  5.54611398E-05
  2.54917178E-05 -1.86824476E-05  4.59045619E-06  1.90591179E-05 -1.22825842E-04
  3.02867610E-05  2.22221821E-05  1.49293940E-05  3.97880100E-05  1.74622316E-06
  1.22977401E-06  5.54611398E-05 -2.54917178E-05  1.86824476E-05  4.59045619E-06
  1.90591179E-05 -1.22825842E-04  3.02867610E-05 -2.22221821E-05 -1.49293940E-05
  3.97880100E-05  3.98381810E-01  3.29836440E-01 -3.30730116E-04  3.04954163E-04
 -4.87074534E-04  3.13275246E-03  1.95457456E-04 -4.80362610E-04  3.59528275E-04
 -1.01418428E-03 -7.89277818E-05  7.28580964E-05  3.59765009E-05 -1.10522028E-04
 -1.00735344E-04  1.48798165E-04 -1.83881230E-05  8.59499082E-05  3.98381810E-01
  3.29836440E-01  3.30730116E-04 -3.04954163E-04 -4.87074534E-04  3.13275246E-03
 -1.95457456E-04  4.80362610E-04  3.59528275E-04 -1.01418428E-03  7.89277818E-05
 -7.28580964E-05  3.59765009E-05 -1.10522028E-04  1.00735344E-04 -1.48798165E-04
 -1.83881230E-05  8.59499082E-05 -1.09626352E-05  8.44933437E-05 -2.30416694E-06
 -2.77438481E-05 -2.96191657E-05  5.29521383E-06 -1.09626352E-05  8.44933437E-05
 -2.30416694E-06  2.77438481E-05  2.96191657E-05  5.29521383E-06 -4.92802741E-05
 -8.46069327E-05  3.46069474E-05 -3.50796865E-05  5.72505538E-05  1.53331155E-04
  1.58497533E-04 -1.78107577E-04  3.02476919E-04  4.12288220E-04  4.86464915E-05
 -2.07368028E-04  1.37048486E-04  6.64620099E-05  9.41897118E-05 -1.04312671E-04
 -5.00372731E-06 -6.85187814E-05 -4.92802741E-05 -8.46069327E-05 -3.46069474E-05
  3.50796865E-05  5.72505538E-05  1.53331155E-04 -1.58497533E-04  1.78107577E-04
  3.02476919E-04  4.12288220E-04 -4.86464915E-05  2.07368028E-04  1.37048486E-04
  6.64620099E-05 -9.41897118E-05  1.04312671E-04 -5.00372731E-06 -6.85187814E-05
  2.36263901E-04  1.32886865E-04  1.66168762E-04 -2.77194584E-05 -1.90377775E-05
 -2.78386845E-05  2.19625741E-04  1.60627344E-04  2.38818978E-04 -1.12589036E-05
 -7.02726585E-06 -3.10156527E-05  2.36263901E-04  1.32886865E-04  1.66168762E-04
  2.77194584E-05  1.90377775E-05 -2.78386845E-05  2.19625741E-04  1.60627344E-04
  2.38818978E-04  1.12589036E-05  7.02726585E-06 -3.10156527E-05  3.98455935E-01
  3.29973208E-01 -2.29230082E-04  4.98841819E-04 -4.92130691E-04  2.79002170E-03
  2.72266629E-04 -1.41408265E-04  4.05987487E-04 -1.94944469E-03  1.23676559E-04
  4.88098605E-04 -3.62339589E-05 -2.53851199E-05 -9.95772181E-05  1.04672567E-04
  9.38196083E-05  2.34818407E-05 -3.98455935E-01 -3.29973208E-01 -2.29230082E-04
  4.98841819E-04  4.92130691E-04 -2.79002170E-03  2.72266629E-04 -1.41408265E-04
 -4.05987487E-04  1.94944469E-03  1.23676559E-04  4.88098605E-04  3.62339589E-05
  2.53851199E-05 -9.95772181E-05  1.04672567E-04 -9.38196083E-05 -2.34818407E-05
 -4.14727572E-06 -1.10843801E-04 -2.09118514E-05 -1.94519687E-06 -1.61732326E-07
 -9.00965391E-06  4.14727572E-06  1.10843801E-04  2.09118514E-05 -1.94519687E-06
 -1.61732326E-07  9.00965391E-06 -5.35256907E-05 -9.47798743E-05  3.59654310E-05
 -3.86772041E-05  6.13395040E-05  2.03661802E-04  1.48172467E-04 -2.12359837E-04
  2.98420875E-04  4.66580796E-04  1.10924310E-04 -1.59484950E-05  1.07055457E-04
  5.99087257E-05  8.98217164E-05 -9.82774743E-05 -3.78756616E-06 -5.61780359E-05
  5.35256907E-05  9.47798743E-05  3.59654310E-05 -3.86772041E-05 -6.13395040E-05
 -2.03661802E-04  1.48172467E-04 -2.12359837E-04 -2.98420875E-04 -4.66580796E-04
  1.10924310E-04 -1.59484950E-05 -1.07055457E-04 -5.99087257E-05  8.98217164E-05
 -9.82774743E-05  3.78756616E-06  5.61780359E-05  2.39684216E-04  1.62535884E-04
  1.65987977E-04 -9.44940963E-06  2.12553109E-05 -2.03501717E-05  2.34810788E-04
  1.71841193E-04  1.95821340E-04 -4.88979035E-06  9.01834298E-06 -2.45994039E-05
 -2.39684216E-04 -1.62535884E-04 -1.65987977E-04 -9.44940963E-06  2.12553109E-05
  2.03501717E-05 -2.34810788E-04 -1.71841193E-04 -1.95821340E-04 -4.88979035E-06
  9.01834298E-06  2.45994039E-05 -3.22376881E-02 -5.30203057E-02 -1.14309520E-02
  9.21850795E-03 -2.24606590E-02  1.35933188E-01 -2.75871820E-02  9.38725777E-03
 -4.62550894E-02  1.30602593E-02  3.10928314E-03 -2.50706484E-03  8.82466526E-03
  3.84690629E-03  1.04671495E-02 -1.35573463E-02 -6.67597535E-03 -3.12945394E-03
 -3.22376881E-02 -5.30203057E-02  1.14309520E-02 -9.21850795E-03 -2.24606590E-02
  1.35933188E-01  2.75871820E-02 -9.38725777E-03 -4.62550894E-02  1.30602593E-02
 -3.10928314E-03  2.50706484E-03  8.82466526E-03  3.84690629E-03 -1.04671495E-02
  1.35573463E-02 -6.67597535E-03 -3.12945394E-03  6.01388171E-02  5.04678491E-02
  9.99625673E-04 -8.28669936E-03 -1.52894882E-02  4.13487811E-03  6.01388171E-02
  5.04678491E-02  9.99625673E-04  8.28669936E-03  1.52894882E-02  4.13487811E-03
 -7.54656274E-02 -1.25960734E-01  1.88534352E-02  3.00854205E-03  1.46149244E-02
  3.55484495E-01  3.31283926E-02  5.19704041E-03  2.60490952E-02  2.72592930E-01
  1.56387358E-02 -9.69012580E-03  2.03567081E-02 -3.07023336E-04  3.35207048E-03
 -4.51943636E-03 -1.75139418E-03  1.84713757E-03 -7.54656274E-02 -1.25960734E-01
 -1.88534352E-02 -3.00854205E-03  1.46149244E-02  3.55484495E-01 -3.31283926E-02
 -5.19704041E-03  2.60490952E-02  2.72592930E-01 -1.56387358E-02  9.69012580E-03
  2.03567081E-02 -3.07023336E-04 -3.35207048E-03  4.51943636E-03 -1.75139418E-03
  1.84713757E-03  1.25449756E-02  2.39893368E-02 -5.51181330E-03  1.17849300E-03
 -2.97189783E-03 -7.34565434E-03  1.37016980E-02  2.85523969E-02 -2.26558913E-03
 -8.43460354E-03  9.22872418E-05 -6.13527854E-04  1.25449756E-02  2.39893368E-02
 -5.51181330E-03 -1.17849300E-03  2.97189783E-03 -7.34565434E-03  1.37016980E-02
  2.85523969E-02 -2.26558913E-03  8.43460354E-03 -9.22872418E-05 -6.13527854E-04
 -2.25935094E-02 -3.69690425E-02 -1.03127433E-02  2.17067077E-02 -2.13140916E-02
  9.43606914E-02 -1.95998541E-02  4.30985370E-02 -4.19770650E-02 -2.64759511E-02
  6.46161269E-03  1.11034836E-02  3.12473019E-03  9.00738724E-03  9.19362993E-03
 -1.45769239E-02 -5.16419938E-04 -8.22916379E-03  2.25935094E-02  3.69690425E-02
 -1.03127433E-02  2.17067077E-02  2.13140916E-02 -9.43606914E-02 -1.95998541E-02
  4.30985370E-02  4.19770650E-02  2.64759511E-02  6.46161269E-03  1.11034836E-02
 -3.12473019E-03 -9.00738724E-03  9.19362993E-03 -1.45769239E-02  5.16419938E-04
  8.22916379E-03  6.57004123E-02  5.29126935E-02 -1.14245777E-03 -8.49023467E-03
 -1.62970829E-02  4.32631572E-03 -6.57004123E-02 -5.29126935E-02  1.14245777E-03
 -8.49023467E-03 -1.62970829E-02 -4.32631572E-03 -7.87362206E-02 -1.31549584E-01
  1.94762006E-02  7.88795855E-03  1.35513659E-02  3.73110025E-01  3.34593018E-02
  1.20763338E-02  2.44461573E-02  2.83314305E-01  1.64449388E-02 -8.63558126E-05
  1.81661249E-02 -4.75910153E-04  2.96488235E-03 -4.01984249E-03 -1.51042262E-03
  2.85462975E-03  7.87362206E-02  1.31549584E-01  1.94762006E-02  7.88795855E-03