 Entering Gaussian System, Link 0=/opt/g09/gaussian/g09/bin/g09
 Input=12-ethanediol-dma.com
 Output=12-ethanediol-dma.log
 Initial command:
 /opt/g09/gaussian/g09/bin/l1.exe /scratch/Gau-380.inp -scrdir=/scratch/
 Entering Link 1 = /opt/g09/gaussian/g09/bin/l1.exe PID=       381.
  
 Copyright (c) 1988,1990,1992,1993,1995,1998,2003,2009, Gaussian, Inc.
                  All Rights Reserved.
  
 This is part of the Gaussian(R) 09 program.  It is based on
 the Gaussian(R) 03 system (copyright 2003, Gaussian, Inc.),
 the Gaussian(R) 98 system (copyright 1998, Gaussian, Inc.),
 the Gaussian(R) 94 system (copyright 1995, Gaussian, Inc.),
 the Gaussian 92(TM) system (copyright 1992, Gaussian, Inc.),
 the Gaussian 90(TM) system (copyright 1990, Gaussian, Inc.),
 the Gaussian 88(TM) system (copyright 1988, Gaussian, Inc.),
 the Gaussian 86(TM) system (copyright 1986, Carnegie Mellon
 University), and the Gaussian 82(TM) system (copyright 1983,
 Carnegie Mellon University). Gaussian is a federally registered
 trademark of Gaussian, Inc.
  
 This software contains proprietary and confidential information,
 including trade secrets, belonging to Gaussian, Inc.
  
 This software is provided under written license and may be
 used, copied, transmitted, or stored only in accord with that
 written license.
  
 The following legend is applicable only to US Government
 contracts under FAR:
  
                    RESTRICTED RIGHTS LEGEND
  
 Use, reproduction and disclosure by the US Government is
 subject to restrictions as set forth in subparagraphs (a)
 and (c) of the Commercial Computer Software - Restricted
 Rights clause in FAR 52.227-19.
  
 Gaussian, Inc.
 340 Quinnipiac St., Bldg. 40, Wallingford CT 06492
  
  
 ---------------------------------------------------------------
 Warning -- This program may not be used in any manner that
 competes with the business of Gaussian, Inc. or will provide
 assistance to any competitor of Gaussian, Inc.  The licensee
 of this program is prohibited from giving any competitor of
 Gaussian, Inc. access to this program.  By using this program,
 the user acknowledges that Gaussian, Inc. is engaged in the
 business of creating and licensing software in the field of
 computational chemistry and represents and warrants to the
 licensee that it is not a competitor of Gaussian, Inc. and that
 it will not use this program in any manner prohibited above.
 ---------------------------------------------------------------
  

 Cite this work as:
 Gaussian 09, Revision A.02,
 M. J. Frisch, G. W. Trucks, H. B. Schlegel, G. E. Scuseria, 
 M. A. Robb, J. R. Cheeseman, G. Scalmani, V. Barone, B. Mennucci, 
 G. A. Petersson, H. Nakatsuji, M. Caricato, X. Li, H. P. Hratchian, 
 A. F. Izmaylov, J. Bloino, G. Zheng, J. L. Sonnenberg, M. Hada, 
 M. Ehara, K. Toyota, R. Fukuda, J. Hasegawa, M. Ishida, T. Nakajima, 
 Y. Honda, O. Kitao, H. Nakai, T. Vreven, J. A. Montgomery, Jr., 
 J. E. Peralta, F. Ogliaro, M. Bearpark, J. J. Heyd, E. Brothers, 
 K. N. Kudin, V. N. Staroverov, R. Kobayashi, J. Normand, 
 K. Raghavachari, A. Rendell, J. C. Burant, S. S. Iyengar, J. Tomasi, 
 M. Cossi, N. Rega, J. M. Millam, M. Klene, J. E. Knox, J. B. Cross, 
 V. Bakken, C. Adamo, J. Jaramillo, R. Gomperts, R. E. Stratmann, 
 O. Yazyev, A. J. Austin, R. Cammi, C. Pomelli, J. W. Ochterski, 
 R. L. Martin, K. Morokuma, V. G. Zakrzewski, G. A. Voth, 
 P. Salvador, J. J. Dannenberg, S. Dapprich, A. D. Daniels, 
 O. Farkas, J. B. Foresman, J. V. Ortiz, J. Cioslowski, 
 and D. J. Fox, Gaussian, Inc., Wallingford CT, 2009.
 
 ******************************************
 Gaussian 09:  EM64L-G09RevA.02 11-Jun-2009
                 3-Jun-2010 
 ******************************************
 %RWF=/scratch/,-1,/home/scratch/,500GB
 %Nosave
 %Chk=12-ethanediol-dma.chk
 %Mem=678484KB
 %Nproc=1
 Will use up to    1 processors via shared memory.
 ------------------------------------------
 #MP2/6-311G** Sp Density=MP2 MaxDisk=500GB
 ------------------------------------------
 1/30=1,38=1/1;
 2/12=2,17=6,18=5,40=1/2;
 3/5=4,6=6,7=101,11=9,16=1,25=1,30=1,71=1/1,2,3;
 4//1;
 5/5=2,38=5/2;
 8/6=4,10=2/1;
 9/15=1,16=-3/6;
 10/5=1,13=10/2;
 6/7=2,8=2,9=2,10=2,22=2/1;
 99/5=1,9=1/99;
 -------------------------------------------------------------
 12-ethanediol Gaussian SP Calculation on node9.bme.utexas.edu
 -------------------------------------------------------------
 Symbolic Z-matrix:
 Charge =  0 Multiplicity = 1
 C                     0.28046   0.70125   0.52326 
 C                    -0.28046  -0.70125   0.52326 
 H                     0.20964   2.20916  -0.69075 
 H                    -0.20964  -2.20916  -0.69075 
 O                    -0.28046   1.41305  -0.54478 
 O                     0.28046  -1.41305  -0.54478 
 H                     0.03991   1.17767   1.47271 
 H                     1.36225   0.64411   0.43672 
 H                    -0.03991  -1.17767   1.47271 
 H                    -1.36225  -0.64411   0.43672 
 
                          Input orientation:                          
 ---------------------------------------------------------------------
 Center     Atomic      Atomic             Coordinates (Angstroms)
 Number     Number       Type             X           Y           Z
 ---------------------------------------------------------------------
      1          6           0        0.280458    0.701252    0.523262
      2          6           0       -0.280458   -0.701252    0.523262
      3          1           0        0.209636    2.209163   -0.690751
      4          1           0       -0.209636   -2.209163   -0.690751
      5          8           0       -0.280458    1.413052   -0.544781
      6          8           0        0.280458   -1.413052   -0.544781
      7          1           0        0.039906    1.177670    1.472709
      8          1           0        1.362249    0.644112    0.436718
      9          1           0       -0.039906   -1.177670    1.472709
     10          1           0       -1.362249   -0.644112    0.436718
 ---------------------------------------------------------------------
                    Distance matrix (angstroms):
                    1          2          3          4          5
     1  C    0.000000
     2  C    1.510511   0.000000
     3  H    1.937173   3.191322   0.000000
     4  H    3.191322   1.937173   4.438175   0.000000
     5  O    1.400715   2.368754   0.946199   3.625847   0.000000
     6  O    2.368754   1.400715   3.625847   0.946199   2.881231
     7  H    1.089169   2.129420   2.402779   4.026595   2.056284
     8  H    1.086750   2.125084   2.247018   3.447200   2.062303
     9  H    2.129420   1.089169   4.026595   2.402779   3.292411
    10  H    2.125084   1.086750   3.447200   2.247018   2.523001
                    6          7          8          9         10
     6  O    0.000000
     7  H    3.292411   0.000000
     8  H    2.523001   1.762541   0.000000
     9  H    2.056284   2.356692   2.521548   0.000000
    10  H    2.062303   2.521548   3.013704   1.762541   0.000000
 Stoichiometry    C2H6O2
 Framework group  C2[X(C2H6O2)]
 Deg. of freedom    13
 Full point group                 C2      NOp   2
 Largest Abelian subgroup         C2      NOp   2
 Largest concise Abelian subgroup C2      NOp   2
                         Standard orientation:                         
 ---------------------------------------------------------------------
 Center     Atomic      Atomic             Coordinates (Angstroms)
 Number     Number       Type             X           Y           Z
 ---------------------------------------------------------------------
      1          6           0        0.280458    0.701252    0.523262
      2          6           0       -0.280458   -0.701252    0.523262
      3          1           0        0.209636    2.209163   -0.690751
      4          1           0       -0.209636   -2.209163   -0.690751
      5          8           0       -0.280458    1.413052   -0.544781
      6          8           0        0.280458   -1.413052   -0.544781
      7          1           0        0.039906    1.177670    1.472709
      8          1           0        1.362249    0.644112    0.436718
      9          1           0       -0.039906   -1.177670    1.472709
     10          1           0       -1.362249   -0.644112    0.436718
 ---------------------------------------------------------------------
 Rotational constants (GHZ):     17.0748510      5.1896598      4.5462905
 Standard basis: 6-311G(d,p) (5D, 7F)
 There are    54 symmetry adapted basis functions of A   symmetry.
 There are    54 symmetry adapted basis functions of B   symmetry.
 Integral buffers will be    131072 words long.
 Raffenetti 1 integral format.
 Two-electron integral symmetry is turned on.
   108 basis functions,   176 primitive gaussians,   112 cartesian basis functions
    17 alpha electrons       17 beta electrons
       nuclear repulsion energy       133.4469923616 Hartrees.
 NAtoms=   10 NActive=   10 NUniq=    5 SFac= 3.00D+00 NAtFMM=   80 NAOKFM=F Big=F
 One-electron integrals computed using PRISM.
 NBasis=   108 RedAO= T  NBF=    54    54
 NBsUse=   108 1.00D-06 NBFU=    54    54
 Harris functional with IExCor=  205 diagonalized for initial guess.
 ExpMin= 1.03D-01 ExpMax= 8.59D+03 ExpMxC= 1.30D+03 IAcc=1 IRadAn=         1 AccDes= 0.00D+00
 HarFok:  IExCor=  205 AccDes= 0.00D+00 IRadAn=         1 IDoV= 1
 ScaDFX=  1.000000  1.000000  1.000000  1.000000
 FoFCou: FMM=F IPFlag=           0 FMFlag=      100000 FMFlg1=           0
         NFxFlg=           0 DoJE=T BraDBF=F KetDBF=T FulRan=T
         Omega=  0.000000  0.000000  1.000000  0.000000  0.000000 ICntrl=     500 IOpCl=  0
         NMat0=    1 NMatS0=    1 NMatT0=    0 NMatD0=    1 NMtDS0=    0 NMtDT0=    0
         I1Cent=           4 NGrid=           0.
 Petite list used in FoFCou.
 Initial guess orbital symmetries:
       Occupied  (A) (B) (A) (B) (A) (B) (A) (B) (A) (B) (A) (B)
                 (A) (B) (A) (A) (B)
       Virtual   (A) (B) (A) (A) (B) (B) (B) (B) (A) (A) (B) (A)
                 (B) (A) (A) (B) (B) (A) (A) (B) (B) (A) (A) (B)
                 (B) (A) (B) (A) (B) (B) (A) (A) (B) (B) (A) (A)
                 (B) (A) (B) (A) (B) (A) (B) (A) (B) (A) (B) (B)
                 (A) (B) (A) (B) (A) (A) (B) (B) (B) (A) (A) (A)
                 (B) (A) (B) (B) (A) (A) (B) (A) (B) (A) (A) (B)
                 (A) (B) (B) (A) (A) (B) (B) (A) (B) (A) (B) (A)
                 (B) (B) (A) (A) (B) (B) (A)
 The electronic state of the initial guess is 1-A.
 Requested convergence on RMS density matrix=1.00D-08 within 128 cycles.
 Requested convergence on MAX density matrix=1.00D-06.
 Requested convergence on             energy=1.00D-06.
 No special actions if energy rises.
 Keep R1 ints in memory in canonical form, NReq=20902416.
 SCF Done:  E(RHF) =  -228.996576071     A.U. after   11 cycles
             Convg  =    0.3743D-08             -V/T =  1.9998
 ExpMin= 1.03D-01 ExpMax= 8.59D+03 ExpMxC= 1.30D+03 IAcc=1 IRadAn=         1 AccDes= 0.00D+00
 HarFok:  IExCor=  205 AccDes= 0.00D+00 IRadAn=         1 IDoV=-2
 ScaDFX=  1.000000  1.000000  1.000000  1.000000
 Range of M.O.s used for correlation:     5   108
 NBasis=   108 NAE=    17 NBE=    17 NFC=     4 NFV=     0
 NROrb=    104 NOA=    13 NOB=    13 NVA=    91 NVB=    91
 Fully in-core method, ICMem=    48489476.
 JobTyp=1 Pass  1 fully in-core, NPsUse=  1.
 Spin components of T(2) and E(2):
     alpha-alpha T2 =       0.2375169742D-01 E2=     -0.8705467325D-01
     alpha-beta  T2 =       0.1428819195D+00 E2=     -0.5274466720D+00
     beta-beta   T2 =       0.2375169742D-01 E2=     -0.8705467325D-01
 ANorm=    0.1091047806D+01
 E2 =    -0.7015560185D+00 EUMP2 =    -0.22969813208917D+03
          Differentiating once with respect to electric field.
                with respect to dipole field.
          Electric field/nuclear overlap derivatives assumed to be zero.
          Keep R1 ints in memory in canonical form, NReq=20845963.
          There are     1 degrees of freedom in the 1st order CPHF.  IDoFFX=0.
 LinEq1:  Iter=  0 NonCon=     1 RMS=3.89D-03 Max=3.09D-02
 AX will form     1 AO Fock derivatives at one time.
 LinEq1:  Iter=  1 NonCon=     1 RMS=7.67D-04 Max=7.63D-03
 LinEq1:  Iter=  2 NonCon=     1 RMS=2.21D-04 Max=1.77D-03
 LinEq1:  Iter=  3 NonCon=     1 RMS=5.09D-05 Max=3.84D-04
 LinEq1:  Iter=  4 NonCon=     1 RMS=2.08D-05 Max=1.77D-04
 LinEq1:  Iter=  5 NonCon=     1 RMS=5.16D-06 Max=6.24D-05
 LinEq1:  Iter=  6 NonCon=     1 RMS=9.90D-07 Max=8.57D-06
 LinEq1:  Iter=  7 NonCon=     1 RMS=1.56D-07 Max=1.40D-06
 LinEq1:  Iter=  8 NonCon=     1 RMS=2.70D-08 Max=2.33D-07
 LinEq1:  Iter=  9 NonCon=     1 RMS=5.24D-09 Max=5.25D-08
 LinEq1:  Iter= 10 NonCon=     1 RMS=8.15D-10 Max=7.85D-09
 LinEq1:  Iter= 11 NonCon=     1 RMS=1.48D-10 Max=1.13D-09
 LinEq1:  Iter= 12 NonCon=     0 RMS=2.24D-11 Max=3.32D-10
 Linear equations converged to 1.000D-10 1.000D-09 after    12 iterations.
 End of Minotr Frequency-dependent properties file   721 does not exist.
 End of Minotr Frequency-dependent properties file   722 does not exist.

 **********************************************************************

            Population analysis using the MP2 density.

 **********************************************************************

 Orbital symmetries:
       Occupied  (B) (A) (A) (B) (A) (B) (A) (B) (B) (A) (A) (B)
                 (A) (B) (A) (A) (B)
       Virtual   (A) (B) (A) (B) (B) (A) (B) (B) (A) (A) (B) (A)
                 (A) (B) (B) (A) (A) (B) (A) (B) (B) (A) (B) (A)
                 (B) (A) (B) (A) (B) (B) (A) (A) (B) (A) (B) (A)
                 (B) (A) (B) (A) (B) (A) (B) (A) (B) (A) (B) (B)
                 (A) (B) (A) (B) (A) (A) (B) (B) (A) (A) (B) (A)
                 (B) (A) (B) (B) (A) (A) (B) (A) (B) (A) (A) (B)
                 (A) (B) (A) (B) (A) (B) (B) (A) (B) (A) (B) (A)
                 (B) (B) (A) (A) (B) (B) (A)
 The electronic state is 1-A.
 Alpha  occ. eigenvalues --  -20.53987 -20.53987 -11.26867 -11.26800  -1.37141
 Alpha  occ. eigenvalues --   -1.35075  -1.00140  -0.83027  -0.71260  -0.71042
 Alpha  occ. eigenvalues --   -0.60820  -0.60317  -0.58958  -0.52687  -0.47187
 Alpha  occ. eigenvalues --   -0.44274  -0.44160
 Alpha virt. eigenvalues --    0.15466   0.17089   0.19322   0.21732   0.23126
 Alpha virt. eigenvalues --    0.24182   0.35935   0.38094   0.38173   0.49844
 Alpha virt. eigenvalues --    0.54660   0.59014   0.62424   0.63874   0.70457
 Alpha virt. eigenvalues --    0.70509   0.76203   0.76686   0.79889   0.81241
 Alpha virt. eigenvalues --    0.83622   0.92600   0.99057   1.05848   1.08962
 Alpha virt. eigenvalues --    1.10526   1.12996   1.16314   1.25480   1.35423
 Alpha virt. eigenvalues --    1.38234   1.54717   1.55202   1.62410   1.63612
 Alpha virt. eigenvalues --    1.64258   1.68227   1.78279   1.79624   1.80574
 Alpha virt. eigenvalues --    1.82839   1.90473   1.91615   1.93599   1.95548
 Alpha virt. eigenvalues --    2.00258   2.06326   2.20820   2.21590   2.28615
 Alpha virt. eigenvalues --    2.35970   2.39898   2.40211   2.54704   2.55955
 Alpha virt. eigenvalues --    2.69884   2.73983   2.76552   2.77244   2.80777
 Alpha virt. eigenvalues --    2.84689   2.91220   2.93211   3.00509   3.10994
 Alpha virt. eigenvalues --    3.27609   3.39000   3.51459   3.51972   3.57734
 Alpha virt. eigenvalues --    3.61195   3.66607   3.71301   3.74551   4.17625
 Alpha virt. eigenvalues --    4.18367   4.25884   4.27646   4.38013   4.40376
 Alpha virt. eigenvalues --    4.65911   5.42698   5.46693   5.83514   5.84963
 Alpha virt. eigenvalues --    6.26197   6.30165  24.97471  24.98750  51.58911
 Alpha virt. eigenvalues --   51.65356
          Condensed to atoms (all electrons):
              1          2          3          4          5          6
     1  C    4.901803   0.280975  -0.032962   0.009222   0.241338  -0.055452
     2  C    0.280975   4.901803   0.009222  -0.032962  -0.055452   0.241338
     3  H   -0.032962   0.009222   0.506077   0.000106   0.295768  -0.000116
     4  H    0.009222  -0.032962   0.000106   0.506077  -0.000116   0.295768
     5  O    0.241338  -0.055452   0.295768  -0.000116   7.973691   0.003452
     6  O   -0.055452   0.241338  -0.000116   0.295768   0.003452   7.973691
     7  H    0.369442  -0.045607  -0.002531  -0.000639  -0.036825   0.004280
     8  H    0.368332  -0.035244  -0.009172  -0.001036  -0.032259   0.004330
     9  H   -0.045607   0.369442  -0.000639  -0.002531   0.004280  -0.036825
    10  H   -0.035244   0.368332  -0.001036  -0.009172   0.004330  -0.032259
              7          8          9         10
     1  C    0.369442   0.368332  -0.045607  -0.035244
     2  C   -0.045607  -0.035244   0.369442   0.368332
     3  H   -0.002531  -0.009172  -0.000639  -0.001036
     4  H   -0.000639  -0.001036  -0.002531  -0.009172
     5  O   -0.036825  -0.032259   0.004280   0.004330
     6  O    0.004280   0.004330  -0.036825  -0.032259
     7  H    0.680407  -0.045790   0.005295  -0.004233
     8  H   -0.045790   0.653512  -0.004233   0.012990
     9  H    0.005295  -0.004233   0.680407  -0.045790
    10  H   -0.004233   0.012990  -0.045790   0.653512
 Mulliken atomic charges:
              1
     1  C   -0.001847
     2  C   -0.001847
     3  H    0.235284
     4  H    0.235284
     5  O   -0.398208
     6  O   -0.398208
     7  H    0.076201
     8  H    0.088569
     9  H    0.076201
    10  H    0.088569
 Sum of Mulliken atomic charges =   0.00000
 Mulliken charges with hydrogens summed into heavy atoms:
              1
     1  C    0.162923
     2  C    0.162923
     5  O   -0.162923
     6  O   -0.162923
 Sum of Mulliken charges with hydrogens summed into heavy atoms =   0.00000
 Electronic spatial extent (au):  <R**2>=            304.9242
 Charge=              0.0000 electrons
 Dipole moment (field-independent basis, Debye):
    X=              0.0000    Y=              0.0000    Z=              1.3845  Tot=              1.3845
 Quadrupole moment (field-independent basis, Debye-Ang):
   XX=            -25.6285   YY=            -18.1341   ZZ=            -25.7013
   XY=              4.7172   XZ=              0.0000   YZ=              0.0000
 Traceless Quadrupole moment (field-independent basis, Debye-Ang):
   XX=             -2.4739   YY=              5.0206   ZZ=             -2.5467
   XY=              4.7172   XZ=              0.0000   YZ=              0.0000
 Octapole moment (field-independent basis, Debye-Ang**2):
  XXX=              0.0000  YYY=              0.0000  ZZZ=             -3.9392  XYY=              0.0000
  XXY=              0.0000  XXZ=             -1.3750  XZZ=              0.0000  YZZ=              0.0000
  YYZ=             -7.7396  XYZ=             -2.9982
 Hexadecapole moment (field-independent basis, Debye-Ang**3):
 XXXX=            -49.3856 YYYY=           -164.3942 ZZZZ=            -84.4755 XXXY=              3.3680
 XXXZ=              0.0000 YYYX=             17.1802 YYYZ=              0.0000 ZZZX=              0.0000
 ZZZY=              0.0000 XXYY=            -48.8891 XXZZ=            -23.4228 YYZZ=            -46.3793
 XXYZ=              0.0000 YYXZ=              0.0000 ZZXY=              1.3873
 N-N= 1.334469923616D+02 E-N=-8.077009465607D+02  KE= 2.298792859755D+02
 Symmetry A    KE= 1.160370613676D+02
 Symmetry B    KE= 1.138422246078D+02
 1\1\GINC-NODE9\SP\RMP2-FC\6-311G(d,p)\C2H6O2\WUCH\03-Jun-2010\0\\#MP2/
 6-311G** Sp Density=MP2 MaxDisk=500GB\\12-ethanediol Gaussian SP Calcu
 lation on node9.bme.utexas.edu\\0,1\C,0,0.280458,0.701252,0.523262\C,0
 ,-0.280458,-0.701252,0.523262\H,0,0.209636,2.209163,-0.690751\H,0,-0.2
 09636,-2.209163,-0.690751\O,0,-0.280458,1.413052,-0.544781\O,0,0.28045
 8,-1.413052,-0.544781\H,0,0.039906,1.17767,1.472709\H,0,1.362249,0.644
 112,0.436718\H,0,-0.039906,-1.17767,1.472709\H,0,-1.362249,-0.644112,0
 .436718\\Version=EM64L-G09RevA.02\State=1-A\HF=-228.9965761\MP2=-229.6
 981321\RMSD=3.743e-09\Dipole=0.,0.,0.544713\Quadrupole=-1.8392781,3.73
 26764,-1.8933983,3.5071242,0.,0.\PG=C02 [X(C2H6O2)]\\@


 A COMPLEXITY IS MERELY A DISARRANGEMENT OF SIMPLICITIES.

                                    -- G. O. ABELL IN "EXPLORATION OF THE UNIVERSE"
 Job cpu time:  0 days  0 hours  0 minutes 25.0 seconds.
 File lengths (MBytes):  RWF=      9 Int=      0 D2E=      0 Chk=      2 Scr=      1
 Normal termination of Gaussian 09 at Thu Jun  3 18:21:37 2010.
