 Entering Gaussian System, Link 0=/opt/g09/gaussian/g09/bin/g09
 Input=12-ethanediol-m06lsp-5-1-2-6-253.com
 Output=12-ethanediol-m06lsp-5-1-2-6-253.log
 Initial command:
 /opt/g09/gaussian/g09/bin/l1.exe /scratch/Gau-12-ethanediol/Gau-19951.inp -scrdir=/scratch/Gau-12-ethanediol/
 Entering Link 1 = /opt/g09/gaussian/g09/bin/l1.exe PID=     19952.
  
 Copyright (c) 1988,1990,1992,1993,1995,1998,2003,2009, Gaussian, Inc.
                  All Rights Reserved.
  
 This is part of the Gaussian(R) 09 program.  It is based on
 the Gaussian(R) 03 system (copyright 2003, Gaussian, Inc.),
 the Gaussian(R) 98 system (copyright 1998, Gaussian, Inc.),
 the Gaussian(R) 94 system (copyright 1995, Gaussian, Inc.),
 the Gaussian 92(TM) system (copyright 1992, Gaussian, Inc.),
 the Gaussian 90(TM) system (copyright 1990, Gaussian, Inc.),
 the Gaussian 88(TM) system (copyright 1988, Gaussian, Inc.),
 the Gaussian 86(TM) system (copyright 1986, Carnegie Mellon
 University), and the Gaussian 82(TM) system (copyright 1983,
 Carnegie Mellon University). Gaussian is a federally registered
 trademark of Gaussian, Inc.
  
 This software contains proprietary and confidential information,
 including trade secrets, belonging to Gaussian, Inc.
  
 This software is provided under written license and may be
 used, copied, transmitted, or stored only in accord with that
 written license.
  
 The following legend is applicable only to US Government
 contracts under FAR:
  
                    RESTRICTED RIGHTS LEGEND
  
 Use, reproduction and disclosure by the US Government is
 subject to restrictions as set forth in subparagraphs (a)
 and (c) of the Commercial Computer Software - Restricted
 Rights clause in FAR 52.227-19.
  
 Gaussian, Inc.
 340 Quinnipiac St., Bldg. 40, Wallingford CT 06492
  
  
 ---------------------------------------------------------------
 Warning -- This program may not be used in any manner that
 competes with the business of Gaussian, Inc. or will provide
 assistance to any competitor of Gaussian, Inc.  The licensee
 of this program is prohibited from giving any competitor of
 Gaussian, Inc. access to this program.  By using this program,
 the user acknowledges that Gaussian, Inc. is engaged in the
 business of creating and licensing software in the field of
 computational chemistry and represents and warrants to the
 licensee that it is not a competitor of Gaussian, Inc. and that
 it will not use this program in any manner prohibited above.
 ---------------------------------------------------------------
  

 Cite this work as:
 Gaussian 09, Revision A.02,
 M. J. Frisch, G. W. Trucks, H. B. Schlegel, G. E. Scuseria, 
 M. A. Robb, J. R. Cheeseman, G. Scalmani, V. Barone, B. Mennucci, 
 G. A. Petersson, H. Nakatsuji, M. Caricato, X. Li, H. P. Hratchian, 
 A. F. Izmaylov, J. Bloino, G. Zheng, J. L. Sonnenberg, M. Hada, 
 M. Ehara, K. Toyota, R. Fukuda, J. Hasegawa, M. Ishida, T. Nakajima, 
 Y. Honda, O. Kitao, H. Nakai, T. Vreven, J. A. Montgomery, Jr., 
 J. E. Peralta, F. Ogliaro, M. Bearpark, J. J. Heyd, E. Brothers, 
 K. N. Kudin, V. N. Staroverov, R. Kobayashi, J. Normand, 
 K. Raghavachari, A. Rendell, J. C. Burant, S. S. Iyengar, J. Tomasi, 
 M. Cossi, N. Rega, J. M. Millam, M. Klene, J. E. Knox, J. B. Cross, 
 V. Bakken, C. Adamo, J. Jaramillo, R. Gomperts, R. E. Stratmann, 
 O. Yazyev, A. J. Austin, R. Cammi, C. Pomelli, J. W. Ochterski, 
 R. L. Martin, K. Morokuma, V. G. Zakrzewski, G. A. Voth, 
 P. Salvador, J. J. Dannenberg, S. Dapprich, A. D. Daniels, 
 O. Farkas, J. B. Foresman, J. V. Ortiz, J. Cioslowski, 
 and D. J. Fox, Gaussian, Inc., Wallingford CT, 2009.
 
 ******************************************
 Gaussian 09:  EM64L-G09RevA.02 11-Jun-2009
                14-Sep-2010 
 ******************************************
 %RWF=/scratch/Gau-12-ethanediol/,32GB
 %Nosave
 %Chk=12-ethanediol-m06lsp-5-1-2-6-253.chk
 %Mem=389242KB
 %Nproc=1
 Will use up to    1 processors via shared memory.
 --------------------------------------------------------------
 #M06L/6-31G** SP SCF=(qc,maxcycle=800) Guess=Indo MaxDisk=32GB
 --------------------------------------------------------------
 1/38=1/1;
 2/12=2,17=6,18=5,40=1/2;
 3/5=1,6=6,7=101,11=2,16=1,25=1,30=1,74=-53/1,2,3;
 4/5=4,11=3/1;
 5/5=2,7=800,8=3,38=5/8;
 6/7=2,8=2,9=2,10=2,28=1/1;
 99/5=1,9=1/99;
 -------------------------------------------------------------------
 12-ethanediol Rotatable Bond SP Calculation on node9.bme.utexas.edu
 -------------------------------------------------------------------
 Symbolic Z-matrix:
 Charge =  0 Multiplicity = 1
 C                     0.64561   0.38594  -0.40511 
 C                    -0.64561   0.38594   0.40511 
 H                     2.36863  -0.49681  -0.28029 
 H                    -2.36863  -0.49681   0.28029 
 O                     1.59868  -0.402     0.26226 
 O                    -1.59868  -0.402    -0.26226 
 H                     0.42769  -0.00479  -1.39342 
 H                     1.01802   1.40197  -0.51576 
 H                    -0.42769  -0.00479   1.39342 
 H                    -1.01802   1.40197   0.51576 
 
                          Input orientation:                          
 ---------------------------------------------------------------------
 Center     Atomic      Atomic             Coordinates (Angstroms)
 Number     Number       Type             X           Y           Z
 ---------------------------------------------------------------------
      1          6           0        0.645614    0.385937   -0.405105
      2          6           0       -0.645614    0.385937    0.405105
      3          1           0        2.368627   -0.496813   -0.280285
      4          1           0       -2.368627   -0.496813    0.280285
      5          8           0        1.598682   -0.401999    0.262258
      6          8           0       -1.598682   -0.401999   -0.262258
      7          1           0        0.427689   -0.004788   -1.393415
      8          1           0        1.018020    1.401970   -0.515755
      9          1           0       -0.427689   -0.004788    1.393415
     10          1           0       -1.018020    1.401970    0.515755
 ---------------------------------------------------------------------
                    Distance matrix (angstroms):
                    1          2          3          4          5
     1  C    0.000000
     2  C    1.524372   0.000000
     3  H    1.940000   3.214756   0.000000
     4  H    3.214756   1.940000   4.770305   0.000000
     5  O    1.405189   2.382879   0.946656   3.968483   0.000000
     6  O    2.382879   1.405189   3.968483   0.946656   3.240101
     7  H    1.084857   2.130568   2.290936   3.295868   2.066459
     8  H    1.087774   2.155918   2.342000   3.963387   2.048604
     9  H    2.130568   1.084857   3.295868   2.290936   2.354458
    10  H    2.155918   1.087774   3.963387   2.342000   3.188369
                    6          7          8          9         10
     6  O    0.000000
     7  H    2.354458   0.000000
     8  H    3.188369   1.760041   0.000000
     9  H    2.066459   2.915149   2.777404   0.000000
    10  H    2.048604   2.777404   2.282427   1.760041   0.000000
 Stoichiometry    C2H6O2
 Framework group  C2[X(C2H6O2)]
 Deg. of freedom    13
 Full point group                 C2      NOp   2
 Largest Abelian subgroup         C2      NOp   2
 Largest concise Abelian subgroup C2      NOp   2
                         Standard orientation:                         
 ---------------------------------------------------------------------
 Center     Atomic      Atomic             Coordinates (Angstroms)
 Number     Number       Type             X           Y           Z
 ---------------------------------------------------------------------
      1          6           0       -0.363277    0.670043    0.385937
      2          6           0        0.363277   -0.670043    0.385937
      3          1           0       -0.129263    2.381647   -0.496813
      4          1           0        0.129263   -2.381647   -0.496813
      5          8           0        0.363277    1.578795   -0.401999
      6          8           0       -0.363277   -1.578795   -0.401999
      7          1           0       -1.363434    0.515336   -0.004788
      8          1           0       -0.450048    1.048725    1.401970
      9          1           0        1.363434   -0.515336   -0.004788
     10          1           0        0.450048   -1.048725    1.401970
 ---------------------------------------------------------------------
 Rotational constants (GHZ):     21.2632929      4.3463761      4.2535545
 Standard basis: 6-31G(d,p) (6D, 7F)
 There are    45 symmetry adapted basis functions of A   symmetry.
 There are    45 symmetry adapted basis functions of B   symmetry.
 Integral buffers will be    131072 words long.
 Raffenetti 2 integral format.
 Two-electron integral symmetry is turned on.
    90 basis functions,   154 primitive gaussians,    90 cartesian basis functions
    17 alpha electrons       17 beta electrons
       nuclear repulsion energy       131.8550632971 Hartrees.
 NAtoms=   10 NActive=   10 NUniq=    5 SFac= 3.00D+00 NAtFMM=   80 NAOKFM=F Big=F
 One-electron integrals computed using PRISM.
 NBasis=    90 RedAO= T  NBF=    45    45
 NBsUse=    90 1.00D-06 NBFU=    45    45
 Projected INDO guess.
 Initial guess orbital symmetries:
       Occupied  (A) (B) (B) (A) (A) (B) (A) (B) (A) (B) (A) (B)
                 (A) (B) (A) (A) (B)
       Virtual   (B) (A) (B) (A) (A) (B) (B) (B) (A) (A) (A) (A)
                 (A) (A) (A) (A) (A) (A) (A) (A) (A) (A) (A) (A)
                 (A) (A) (A) (A) (A) (A) (A) (A) (A) (A) (A) (A)
                 (A) (A) (A) (A) (A) (B) (B) (B) (B) (B) (B) (B)
                 (B) (B) (B) (B) (B) (B) (B) (B) (B) (B) (B) (B)
                 (B) (B) (B) (B) (B) (B) (B) (B) (B) (B) (B) (B)
                 (B)
 The electronic state of the initial guess is 1-A.
 Keep J ints in memory in canonical form, NReq=9445589.
 Gradient too large for Newton-Raphson -- use scaled steepest descent instead.
 Gradient too large for Newton-Raphson -- use scaled steepest descent instead.
 Gradient too large for Newton-Raphson -- use scaled steepest descent instead.
 Gradient too large for Newton-Raphson -- use scaled steepest descent instead.
 Gradient too large for Newton-Raphson -- use scaled steepest descent instead.
 Gradient too large for Newton-Raphson -- use scaled steepest descent instead.
 Gradient too large for Newton-Raphson -- use scaled steepest descent instead.
 LinEq1:  Iter=  0 NonCon=     1 RMS=5.84D-05 Max=7.27D-04
 AX will form     1 AO Fock derivatives at one time.
 LinEq1:  Iter=  1 NonCon=     1 RMS=3.04D-05 Max=2.64D-04
 LinEq1:  Iter=  2 NonCon=     1 RMS=2.49D-06 Max=2.62D-05
 LinEq1:  Iter=  3 NonCon=     1 RMS=1.76D-07 Max=1.47D-06
 LinEq1:  Iter=  4 NonCon=     1 RMS=2.32D-08 Max=2.43D-07
 LinEq1:  Iter=  5 NonCon=     1 RMS=1.18D-08 Max=9.47D-08
 LinEq1:  Iter=  6 NonCon=     0 RMS=2.36D-09 Max=1.63D-08
 Linear equations converged to 4.982D-09 4.982D-08 after     6 iterations.
 LinEq1:  Iter=  0 NonCon=     1 RMS=2.22D-08 Max=3.06D-07
 LinEq1:  Iter=  1 NonCon=     1 RMS=6.16D-09 Max=5.40D-08
 LinEq1:  Iter=  2 NonCon=     1 RMS=3.10D-09 Max=2.50D-08
 LinEq1:  Iter=  3 NonCon=     1 RMS=1.51D-09 Max=1.72D-08
 LinEq1:  Iter=  4 NonCon=     1 RMS=8.07D-10 Max=7.27D-09
 LinEq1:  Iter=  5 NonCon=     1 RMS=2.81D-10 Max=2.98D-09
 LinEq1:  Iter=  6 NonCon=     1 RMS=5.58D-11 Max=4.33D-10
 LinEq1:  Iter=  7 NonCon=     1 RMS=1.21D-11 Max=9.68D-11
 LinEq1:  Iter=  8 NonCon=     0 RMS=2.51D-12 Max=2.55D-11
 Linear equations converged to 8.693D-12 8.693D-11 after     8 iterations.
 SCF Done:  E(RM06L) =  -230.212359645     a.u. after   10 cycles
            Convg  =    0.1302D-10                    45 Fock formations.
              S**2 =  0.0000                  -V/T =  2.0067

 **********************************************************************

            Population analysis using the SCF density.

 **********************************************************************

 Orbital symmetries:
       Occupied  (B) (A) (A) (B) (A) (B) (A) (B) (B) (A) (A) (A)
                 (B) (B) (A) (A) (B)
       Virtual   (B) (A) (A) (A) (B) (B) (B) (B) (A) (B) (A) (A)
                 (B) (A) (B) (A) (B) (A) (B) (A) (B) (A) (B) (A)
                 (B) (A) (B) (A) (B) (A) (B) (A) (B) (B) (A) (A)
                 (B) (A) (B) (A) (B) (B) (A) (A) (B) (A) (B) (A)
                 (B) (A) (B) (B) (A) (A) (B) (A) (B) (B) (A) (A)
                 (B) (B) (A) (A) (B) (A) (A) (B) (B) (B) (A) (A)
                 (B)
 The electronic state is 1-A.
 Alpha  occ. eigenvalues --  -18.97434 -18.97434 -10.09913 -10.09900  -0.99758
 Alpha  occ. eigenvalues --   -0.98575  -0.70099  -0.56994  -0.49207  -0.47338
 Alpha  occ. eigenvalues --   -0.39727  -0.37956  -0.37284  -0.31027  -0.28136
 Alpha  occ. eigenvalues --   -0.22753  -0.21905
 Alpha virt. eigenvalues --    0.08325   0.08937   0.13999   0.14756   0.15380
 Alpha virt. eigenvalues --    0.17754   0.20730   0.23010   0.25307   0.54576
 Alpha virt. eigenvalues --    0.54839   0.56339   0.61827   0.65621   0.71468
 Alpha virt. eigenvalues --    0.77280   0.79905   0.80800   0.82503   0.84757
 Alpha virt. eigenvalues --    0.85473   0.92795   0.94170   0.97834   0.99218
 Alpha virt. eigenvalues --    0.99649   1.12440   1.17751   1.23174   1.36818
 Alpha virt. eigenvalues --    1.38407   1.50178   1.56245   1.59341   1.59406
 Alpha virt. eigenvalues --    1.68725   1.77294   1.84671   1.91890   1.93175
 Alpha virt. eigenvalues --    1.94832   1.96770   1.97542   2.03700   2.13588
 Alpha virt. eigenvalues --    2.15923   2.32858   2.36700   2.39418   2.45314
 Alpha virt. eigenvalues --    2.47381   2.60777   2.66917   2.70814   2.72287
 Alpha virt. eigenvalues --    2.75152   2.76121   2.79057   2.81922   2.90133
 Alpha virt. eigenvalues --    2.95213   3.08643   3.09627   3.34168   3.39618
 Alpha virt. eigenvalues --    3.44977   3.55668   3.56270   3.57506   3.94964
 Alpha virt. eigenvalues --    4.09972   4.42880   4.71233
          Condensed to atoms (all electrons):
              1          2          3          4          5          6
     1  C    4.782863   0.351675  -0.022825   0.007024   0.229306  -0.050204
     2  C    0.351675   4.782863   0.007024  -0.022825  -0.050204   0.229306
     3  H   -0.022825   0.007024   0.402377   0.000014   0.293398  -0.000182
     4  H    0.007024  -0.022825   0.000014   0.402377  -0.000182   0.293398
     5  O    0.229306  -0.050204   0.293398  -0.000182   8.183982   0.001234
     6  O   -0.050204   0.229306  -0.000182   0.293398   0.001234   8.183982
     7  H    0.384119  -0.045772  -0.006709   0.000065  -0.036117   0.002176
     8  H    0.373149  -0.043746  -0.003543  -0.000368  -0.045170   0.002846
     9  H   -0.045772   0.384119   0.000065  -0.006709   0.002176  -0.036117
    10  H   -0.043746   0.373149  -0.000368  -0.003543   0.002846  -0.045170
              7          8          9         10
     1  C    0.384119   0.373149  -0.045772  -0.043746
     2  C   -0.045772  -0.043746   0.384119   0.373149
     3  H   -0.006709  -0.003543   0.000065  -0.000368
     4  H    0.000065  -0.000368  -0.006709  -0.003543
     5  O   -0.036117  -0.045170   0.002176   0.002846
     6  O    0.002176   0.002846  -0.036117  -0.045170
     7  H    0.622025  -0.052470   0.005008   0.003075
     8  H   -0.052470   0.677434   0.003075  -0.002720
     9  H    0.005008   0.003075   0.622025  -0.052470
    10  H    0.003075  -0.002720  -0.052470   0.677434
 Mulliken atomic charges:
              1
     1  C    0.034411
     2  C    0.034411
     3  H    0.330748
     4  H    0.330748
     5  O   -0.581270
     6  O   -0.581270
     7  H    0.124600
     8  H    0.091512
     9  H    0.124600
    10  H    0.091512
 Sum of Mulliken atomic charges =   0.00000
 Mulliken charges with hydrogens summed into heavy atoms:
              1
     1  C    0.250522
     2  C    0.250522
     5  O   -0.250522
     6  O   -0.250522
 Sum of Mulliken charges with hydrogens summed into heavy atoms =   0.00000
 Electronic spatial extent (au):  <R**2>=            321.9482
 Charge=              0.0000 electrons
 Dipole moment (field-independent basis, Debye):
    X=              0.0000    Y=              0.0000    Z=              0.9388  Tot=              0.9388
 Quadrupole moment (field-independent basis, Debye-Ang):
   XX=            -25.4502   YY=            -17.3201   ZZ=            -25.2485
   XY=             -5.2643   XZ=              0.0000   YZ=              0.0000
 Traceless Quadrupole moment (field-independent basis, Debye-Ang):
   XX=             -2.7773   YY=              5.3528   ZZ=             -2.5756
   XY=             -5.2643   XZ=              0.0000   YZ=              0.0000
 Octapole moment (field-independent basis, Debye-Ang**2):
  XXX=              0.0000  YYY=              0.0000  ZZZ=             -2.3963  XYY=              0.0000
  XXY=              0.0000  XXZ=             -1.2905  XZZ=              0.0000  YZZ=              0.0000
  YYZ=             -6.0757  XYZ=              2.0629
 Hexadecapole moment (field-independent basis, Debye-Ang**3):
 XXXX=            -56.2114 YYYY=           -166.5913 ZZZZ=            -60.7595 XXXY=             -6.9760
 XXXZ=              0.0000 YYYX=            -23.0530 YYYZ=              0.0000 ZZZX=              0.0000
 ZZZY=              0.0000 XXYY=            -55.0663 XXZZ=            -20.1472 YYZZ=            -49.6665
 XXYZ=              0.0000 YYXZ=              0.0000 ZZXY=             -2.6987
 N-N= 1.318550632971D+02 E-N=-8.039827254256D+02  KE= 2.286763686096D+02
 Symmetry A    KE= 1.156170622296D+02
 Symmetry B    KE= 1.130593063800D+02
 1\1\GINC-NODE9\SP\RM06L\6-31G(d,p)\C2H6O2\WUCH\14-Sep-2010\0\\#M06L/6-
 31G** SP SCF=(qc,maxcycle=800) Guess=Indo MaxDisk=32GB\\12-ethanediol 
 Rotatable Bond SP Calculation on node9.bme.utexas.edu\\0,1\C,0,0.64561
 4,0.385937,-0.405105\C,0,-0.645614,0.385937,0.405105\H,0,2.368627,-0.4
 96813,-0.280285\H,0,-2.368627,-0.496813,0.280285\O,0,1.598682,-0.40199
 9,0.262258\O,0,-1.598682,-0.401999,-0.262258\H,0,0.427689,-0.004788,-1
 .393415\H,0,1.01802,1.40197,-0.515755\H,0,-0.427689,-0.004788,1.393415
 \H,0,-1.01802,1.40197,0.515755\\Version=EM64L-G09RevA.02\State=1-A\HF=
 -230.2123596\RMSD=0.000e+00\Dipole=0.,0.3693444,0.\Quadrupole=3.459094
 ,-1.9148715,-1.5442225,0.,-4.2655018,0.\PG=C02 [X(C2H6O2)]\\@


 BUT 'GLORY' DOESN'T MEAN 'A NICE KNOCK DOWN ARGUMENT', ALICE OBJECTED.
 WHEN I USE A WORD, HUMPTY DUMPTY SAID, IN A RATHER SCORNFUL TONE,
 IT MEANS JUST WHAT I CHOOSE IT TO MEAN....
 NEITHER MORE NOR LESS....
 THE QUESTION IS, SAID ALICE,
 WHETHER YOU CAN MAKE WORDS MEAN SO MANY DIFFERENT THINGS...
 THE QUESTION IS, SAID HUMPTY DUMPTY,
 WHICH IS TO BE MASTER....
 THAT IS ALL.....

 ALICE THROUGH THE LOOKING GLASS
 Job cpu time:  0 days  0 hours  4 minutes 51.4 seconds.
 File lengths (MBytes):  RWF=      5 Int=      0 D2E=      0 Chk=      1 Scr=      1
 Normal termination of Gaussian 09 at Tue Sep 14 15:05:41 2010.
