 Entering Gaussian System, Link 0=/opt/g09/gaussian/g09/bin/g09
 Input=12-ethanediol-opt-5-1-2-6-103.com
 Output=12-ethanediol-opt-5-1-2-6-103.log
 Initial command:
 /opt/g09/gaussian/g09/bin/l1.exe /scratch/Gau-12-ethanediol/Gau-9498.inp -scrdir=/scratch/Gau-12-ethanediol/
 Entering Link 1 = /opt/g09/gaussian/g09/bin/l1.exe PID=      9499.
  
 Copyright (c) 1988,1990,1992,1993,1995,1998,2003,2009, Gaussian, Inc.
                  All Rights Reserved.
  
 This is part of the Gaussian(R) 09 program.  It is based on
 the Gaussian(R) 03 system (copyright 2003, Gaussian, Inc.),
 the Gaussian(R) 98 system (copyright 1998, Gaussian, Inc.),
 the Gaussian(R) 94 system (copyright 1995, Gaussian, Inc.),
 the Gaussian 92(TM) system (copyright 1992, Gaussian, Inc.),
 the Gaussian 90(TM) system (copyright 1990, Gaussian, Inc.),
 the Gaussian 88(TM) system (copyright 1988, Gaussian, Inc.),
 the Gaussian 86(TM) system (copyright 1986, Carnegie Mellon
 University), and the Gaussian 82(TM) system (copyright 1983,
 Carnegie Mellon University). Gaussian is a federally registered
 trademark of Gaussian, Inc.
  
 This software contains proprietary and confidential information,
 including trade secrets, belonging to Gaussian, Inc.
  
 This software is provided under written license and may be
 used, copied, transmitted, or stored only in accord with that
 written license.
  
 The following legend is applicable only to US Government
 contracts under FAR:
  
                    RESTRICTED RIGHTS LEGEND
  
 Use, reproduction and disclosure by the US Government is
 subject to restrictions as set forth in subparagraphs (a)
 and (c) of the Commercial Computer Software - Restricted
 Rights clause in FAR 52.227-19.
  
 Gaussian, Inc.
 340 Quinnipiac St., Bldg. 40, Wallingford CT 06492
  
  
 ---------------------------------------------------------------
 Warning -- This program may not be used in any manner that
 competes with the business of Gaussian, Inc. or will provide
 assistance to any competitor of Gaussian, Inc.  The licensee
 of this program is prohibited from giving any competitor of
 Gaussian, Inc. access to this program.  By using this program,
 the user acknowledges that Gaussian, Inc. is engaged in the
 business of creating and licensing software in the field of
 computational chemistry and represents and warrants to the
 licensee that it is not a competitor of Gaussian, Inc. and that
 it will not use this program in any manner prohibited above.
 ---------------------------------------------------------------
  

 Cite this work as:
 Gaussian 09, Revision A.02,
 M. J. Frisch, G. W. Trucks, H. B. Schlegel, G. E. Scuseria, 
 M. A. Robb, J. R. Cheeseman, G. Scalmani, V. Barone, B. Mennucci, 
 G. A. Petersson, H. Nakatsuji, M. Caricato, X. Li, H. P. Hratchian, 
 A. F. Izmaylov, J. Bloino, G. Zheng, J. L. Sonnenberg, M. Hada, 
 M. Ehara, K. Toyota, R. Fukuda, J. Hasegawa, M. Ishida, T. Nakajima, 
 Y. Honda, O. Kitao, H. Nakai, T. Vreven, J. A. Montgomery, Jr., 
 J. E. Peralta, F. Ogliaro, M. Bearpark, J. J. Heyd, E. Brothers, 
 K. N. Kudin, V. N. Staroverov, R. Kobayashi, J. Normand, 
 K. Raghavachari, A. Rendell, J. C. Burant, S. S. Iyengar, J. Tomasi, 
 M. Cossi, N. Rega, J. M. Millam, M. Klene, J. E. Knox, J. B. Cross, 
 V. Bakken, C. Adamo, J. Jaramillo, R. Gomperts, R. E. Stratmann, 
 O. Yazyev, A. J. Austin, R. Cammi, C. Pomelli, J. W. Ochterski, 
 R. L. Martin, K. Morokuma, V. G. Zakrzewski, G. A. Voth, 
 P. Salvador, J. J. Dannenberg, S. Dapprich, A. D. Daniels, 
 O. Farkas, J. B. Foresman, J. V. Ortiz, J. Cioslowski, 
 and D. J. Fox, Gaussian, Inc., Wallingford CT, 2009.
 
 ******************************************
 Gaussian 09:  EM64L-G09RevA.02 11-Jun-2009
                14-Sep-2010 
 ******************************************
 %RWF=/scratch/Gau-12-ethanediol/,32GB
 %Nosave
 %Chk=12-ethanediol-opt-5-1-2-6-103.chk
 %Mem=389242KB
 %Nproc=1
 Will use up to    1 processors via shared memory.
 ----------------------------------
 #HF/6-31G* Opt=ModRed MaxDisk=32GB
 ----------------------------------
 1/18=120,19=15,38=1/1,3;
 2/9=110,12=2,17=6,18=5,40=1/2;
 3/5=1,6=6,7=1,11=9,16=1,25=1,30=1,71=1/1,2,3;
 4//1;
 5/5=2,38=5/2;
 6/7=2,8=2,9=2,10=2,28=1/1;
 7//1,2,3,16;
 1/18=20,19=15/3(2);
 2/9=110/2;
 99//99;
 2/9=110/2;
 3/5=1,6=6,7=1,11=9,16=1,25=1,30=1,71=1/1,2,3;
 4/5=5,16=3/1;
 5/5=2,38=5/2;
 7//1,2,3,16;
 1/18=20,19=15/3(-5);
 2/9=110/2;
 6/7=2,8=2,9=2,10=2,19=2,28=1/1;
 99/9=1/99;
 -----------------------------------------------------------------
 12-ethanediol Rotatable Bond Optimization on node8.bme.utexas.edu
 -----------------------------------------------------------------
 Symbolic Z-matrix:
 Charge =  0 Multiplicity = 1
 C                     0.28046   0.70125   0.52326 
 C                    -0.28046  -0.70125   0.52326 
 H                     0.20964   2.20916  -0.69075 
 H                    -0.20964  -2.20916  -0.69075 
 O                    -0.28046   1.41305  -0.54478 
 O                     0.28046  -1.41305  -0.54478 
 H                     0.03991   1.17767   1.47271 
 H                     1.36225   0.64411   0.43672 
 H                    -0.03991  -1.17767   1.47271 
 H                    -1.36225  -0.64411   0.43672 
 
 The following ModRedundant input section has been read:
 D    5    1    2    6 102.64 F                                                
 Iteration  1 RMS(Cart)=  0.02375534 RMS(Int)=  0.07460833
 Iteration  2 RMS(Cart)=  0.00917541 RMS(Int)=  0.07178762
 Iteration  3 RMS(Cart)=  0.00339075 RMS(Int)=  0.07090730
 Iteration  4 RMS(Cart)=  0.00125589 RMS(Int)=  0.07060501
 Iteration  5 RMS(Cart)=  0.00046491 RMS(Int)=  0.07049642
 Iteration  6 RMS(Cart)=  0.00017206 RMS(Int)=  0.07045668
 Iteration  7 RMS(Cart)=  0.00006367 RMS(Int)=  0.07044204
 Iteration  8 RMS(Cart)=  0.00002356 RMS(Int)=  0.07043663
 Iteration  9 RMS(Cart)=  0.00000872 RMS(Int)=  0.07043463
 Iteration 10 RMS(Cart)=  0.00000323 RMS(Int)=  0.07043389
 Iteration 11 RMS(Cart)=  0.00000119 RMS(Int)=  0.07043362
 Iteration 12 RMS(Cart)=  0.00000044 RMS(Int)=  0.07043352
 Iteration  1 RMS(Cart)=  0.02418746 RMS(Int)=  0.05614355
 Iteration  2 RMS(Cart)=  0.02447578 RMS(Int)=  0.05233969
 Iteration  3 RMS(Cart)=  0.02475348 RMS(Int)=  0.05571783
 Iteration  4 RMS(Cart)=  0.02310796 RMS(Int)=  0.06427366
 Iteration  5 RMS(Cart)=  0.01473233 RMS(Int)=  0.07155096
 Iteration  6 RMS(Cart)=  0.00936060 RMS(Int)=  0.07667787
 Iteration  7 RMS(Cart)=  0.00593687 RMS(Int)=  0.08008670
 Iteration  8 RMS(Cart)=  0.00376168 RMS(Int)=  0.08230031
 Iteration  9 RMS(Cart)=  0.00238209 RMS(Int)=  0.08372155
 Iteration 10 RMS(Cart)=  0.00150796 RMS(Int)=  0.08462857
 Iteration 11 RMS(Cart)=  0.00095440 RMS(Int)=  0.08520545
 Iteration 12 RMS(Cart)=  0.00060397 RMS(Int)=  0.08557162
 Iteration 13 RMS(Cart)=  0.00038218 RMS(Int)=  0.08580376
 Iteration 14 RMS(Cart)=  0.00024183 RMS(Int)=  0.08595081
 Iteration 15 RMS(Cart)=  0.00015301 RMS(Int)=  0.08604393
 Iteration 16 RMS(Cart)=  0.00009681 RMS(Int)=  0.08610287
 Iteration 17 RMS(Cart)=  0.00006126 RMS(Int)=  0.08614018
 Iteration 18 RMS(Cart)=  0.00003876 RMS(Int)=  0.08616379
 Iteration 19 RMS(Cart)=  0.00002452 RMS(Int)=  0.08617872
 Iteration 20 RMS(Cart)=  0.00001551 RMS(Int)=  0.08618818
 Iteration 21 RMS(Cart)=  0.00000982 RMS(Int)=  0.08619416
 Iteration 22 RMS(Cart)=  0.00000621 RMS(Int)=  0.08619794
 Iteration 23 RMS(Cart)=  0.00000393 RMS(Int)=  0.08620034
 Iteration 24 RMS(Cart)=  0.00000249 RMS(Int)=  0.08620185
 Iteration 25 RMS(Cart)=  0.00000157 RMS(Int)=  0.08620281
 Iteration 26 RMS(Cart)=  0.00000100 RMS(Int)=  0.08620342

 GradGradGradGradGradGradGradGradGradGradGradGradGradGradGradGradGradGrad
 Berny optimization.
 Initialization pass.
                           ----------------------------
                           !    Initial Parameters    !
                           ! (Angstroms and Degrees)  !
 --------------------------                            --------------------------
 ! Name  Definition              Value          Derivative Info.                !
 --------------------------------------------------------------------------------
 ! R1    R(1,2)                  1.5112         estimate D2E/DX2                !
 ! R2    R(1,5)                  1.4041         estimate D2E/DX2                !
 ! R3    R(1,7)                  1.0892         estimate D2E/DX2                !
 ! R4    R(1,8)                  1.0869         estimate D2E/DX2                !
 ! R5    R(2,6)                  1.4041         estimate D2E/DX2                !
 ! R6    R(2,9)                  1.0892         estimate D2E/DX2                !
 ! R7    R(2,10)                 1.0869         estimate D2E/DX2                !
 ! R8    R(3,5)                  0.9463         estimate D2E/DX2                !
 ! R9    R(4,6)                  0.9463         estimate D2E/DX2                !
 ! A1    A(2,1,5)              108.7022         estimate D2E/DX2                !
 ! A2    A(2,1,7)              106.0557         estimate D2E/DX2                !
 ! A3    A(2,1,8)              110.9286         estimate D2E/DX2                !
 ! A4    A(5,1,7)               98.6269         estimate D2E/DX2                !
 ! A5    A(5,1,8)              122.3994         estimate D2E/DX2                !
 ! A6    A(7,1,8)              108.3863         estimate D2E/DX2                !
 ! A7    A(1,2,6)              108.7022         estimate D2E/DX2                !
 ! A8    A(1,2,9)              106.0557         estimate D2E/DX2                !
 ! A9    A(1,2,10)             110.9286         estimate D2E/DX2                !
 ! A10   A(6,2,9)               98.6269         estimate D2E/DX2                !
 ! A11   A(6,2,10)             122.3994         estimate D2E/DX2                !
 ! A12   A(9,2,10)             108.3863         estimate D2E/DX2                !
 ! A13   A(1,5,3)              109.7527         estimate D2E/DX2                !
 ! A14   A(2,6,4)              109.7527         estimate D2E/DX2                !
 ! D1    D(5,1,2,6)            102.6397         Frozen                          !
 ! D2    D(5,1,2,9)           -152.1587         estimate D2E/DX2                !
 ! D3    D(5,1,2,10)           -34.6766         estimate D2E/DX2                !
 ! D4    D(7,1,2,6)           -152.1587         estimate D2E/DX2                !
 ! D5    D(7,1,2,9)            -46.9572         estimate D2E/DX2                !
 ! D6    D(7,1,2,10)            70.525          estimate D2E/DX2                !
 ! D7    D(8,1,2,6)            -34.6766         estimate D2E/DX2                !
 ! D8    D(8,1,2,9)             70.525          estimate D2E/DX2                !
 ! D9    D(8,1,2,10)          -171.9929         estimate D2E/DX2                !
 ! D10   D(2,1,5,3)           -172.9889         estimate D2E/DX2                !
 ! D11   D(7,1,5,3)             76.7261         estimate D2E/DX2                !
 ! D12   D(8,1,5,3)            -41.5766         estimate D2E/DX2                !
 ! D13   D(1,2,6,4)           -172.9889         estimate D2E/DX2                !
 ! D14   D(9,2,6,4)             76.7261         estimate D2E/DX2                !
 ! D15   D(10,2,6,4)           -41.5766         estimate D2E/DX2                !
 --------------------------------------------------------------------------------
 Trust Radius=3.00D-01 FncErr=1.00D-07 GrdErr=1.00D-07
 Number of steps in this run=  48 maximum allowed number of steps= 100.
 GradGradGradGradGradGradGradGradGradGradGradGradGradGradGradGradGradGrad

                          Input orientation:                          
 ---------------------------------------------------------------------
 Center     Atomic      Atomic             Coordinates (Angstroms)
 Number     Number       Type             X           Y           Z
 ---------------------------------------------------------------------
      1          6           0        0.348337    0.670491    0.413480
      2          6           0       -0.348337   -0.670491    0.413480
      3          1           0        0.114680    2.358369   -0.514747
      4          1           0       -0.114680   -2.358369   -0.514747
      5          8           0       -0.365410    1.548654   -0.417702
      6          8           0        0.365410   -1.548654   -0.417702
      7          1           0        0.117160    1.130059    1.373527
      8          1           0        1.426032    0.548129    0.342599
      9          1           0       -0.117160   -1.130059    1.373527
     10          1           0       -1.426032   -0.548129    0.342599
 ---------------------------------------------------------------------
                    Distance matrix (angstroms):
                    1          2          3          4          5
     1  C    0.000000
     2  C    1.511153   0.000000
     3  H    1.940395   3.201559   0.000000
     4  H    3.201559   1.940395   4.722311   0.000000
     5  O    1.404091   2.369760   0.946331   3.916263   0.000000
     6  O    2.369760   1.404091   3.916263   0.946331   3.182360
     7  H    1.089190   2.092930   2.252628   3.973469   1.901736
     8  H    1.086933   2.153704   2.394087   3.399494   2.188235
     9  H    2.092930   1.089190   3.973469   2.252628   3.231971
    10  H    2.153704   1.086933   3.399494   2.394087   2.469711
                    6          7          8          9         10
     6  O    0.000000
     7  H    3.231971   0.000000
     8  H    2.469711   1.764823   0.000000
     9  H    1.901736   2.272231   2.502113   0.000000
    10  H    2.188235   2.502113   3.055494   1.764823   0.000000
 Stoichiometry    C2H6O2
 Framework group  C2[X(C2H6O2)]
 Deg. of freedom    13
 Full point group                 C2      NOp   2
 Largest Abelian subgroup         C2      NOp   2
 Largest concise Abelian subgroup C2      NOp   2
                         Standard orientation:                         
 ---------------------------------------------------------------------
 Center     Atomic      Atomic             Coordinates (Angstroms)
 Number     Number       Type             X           Y           Z
 ---------------------------------------------------------------------
      1          6           0        0.353485    0.667791    0.393443
      2          6           0       -0.353485   -0.667791    0.393443
      3          1           0        0.132821    2.357417   -0.534785
      4          1           0       -0.132821   -2.357417   -0.534785
      5          8           0       -0.353485    1.551420   -0.437740
      6          8           0        0.353485   -1.551420   -0.437740
      7          1           0        0.125851    1.129124    1.353489
      8          1           0        1.430206    0.537141    0.322561
      9          1           0       -0.125851   -1.129124    1.353489
     10          1           0       -1.430206   -0.537141    0.322561
 ---------------------------------------------------------------------
 Rotational constants (GHZ):     20.6588288      4.4629519      4.3099676
 Standard basis: 6-31G(d) (6D, 7F)
 There are    36 symmetry adapted basis functions of A   symmetry.
 There are    36 symmetry adapted basis functions of B   symmetry.
 Integral buffers will be    131072 words long.
 Raffenetti 1 integral format.
 Two-electron integral symmetry is turned on.
    72 basis functions,   136 primitive gaussians,    72 cartesian basis functions
    17 alpha electrons       17 beta electrons
       nuclear repulsion energy       132.2863989282 Hartrees.
 NAtoms=   10 NActive=   10 NUniq=    5 SFac= 3.00D+00 NAtFMM=   80 NAOKFM=F Big=F
 One-electron integrals computed using PRISM.
 NBasis=    72 RedAO= T  NBF=    36    36
 NBsUse=    72 1.00D-06 NBFU=    36    36
 Harris functional with IExCor=  205 diagonalized for initial guess.
 ExpMin= 1.61D-01 ExpMax= 5.48D+03 ExpMxC= 8.25D+02 IAcc=1 IRadAn=         1 AccDes= 0.00D+00
 HarFok:  IExCor=  205 AccDes= 0.00D+00 IRadAn=         1 IDoV= 1
 ScaDFX=  1.000000  1.000000  1.000000  1.000000
 FoFCou: FMM=F IPFlag=           0 FMFlag=      100000 FMFlg1=           0
         NFxFlg=           0 DoJE=T BraDBF=F KetDBF=T FulRan=T
         Omega=  0.000000  0.000000  1.000000  0.000000  0.000000 ICntrl=     500 IOpCl=  0
         NMat0=    1 NMatS0=    1 NMatT0=    0 NMatD0=    1 NMtDS0=    0 NMtDT0=    0
         I1Cent=           4 NGrid=           0.
 Petite list used in FoFCou.
 Initial guess orbital symmetries:
       Occupied  (A) (B) (A) (B) (A) (B) (A) (B) (B) (A) (A) (A)
                 (B) (B) (A) (A) (B)
       Virtual   (A) (B) (A) (A) (B) (B) (B) (B) (A) (B) (A) (A)
                 (B) (B) (A) (A) (B) (B) (A) (A) (B) (B) (A) (A)
                 (B) (A) (A) (B) (B) (B) (A) (A) (B) (A) (B) (A)
                 (B) (A) (B) (A) (B) (A) (B) (A) (A) (B) (B) (B)
                 (A) (A) (B) (B) (A) (A) (B)
 The electronic state of the initial guess is 1-A.
 Requested convergence on RMS density matrix=1.00D-08 within 128 cycles.
 Requested convergence on MAX density matrix=1.00D-06.
 Requested convergence on             energy=1.00D-06.
 No special actions if energy rises.
 Keep R1 ints in memory in canonical form, NReq=4309302.
 SCF Done:  E(RHF) =  -228.897167711     A.U. after   11 cycles
             Convg  =    0.8938D-08             -V/T =  2.0012

 **********************************************************************

            Population analysis using the SCF density.

 **********************************************************************

 Orbital symmetries:
       Occupied  (B) (A) (A) (B) (A) (B) (A) (B) (B) (A) (A) (B)
                 (A) (B) (A) (A) (B)
       Virtual   (A) (B) (A) (B) (A) (B) (B) (B) (A) (A) (B) (A)
                 (B) (B) (A) (A) (B) (B) (A) (A) (B) (A) (B) (A)
                 (B) (A) (A) (B) (B) (B) (A) (A) (B) (A) (B) (A)
                 (B) (A) (B) (A) (B) (A) (B) (A) (A) (B) (B) (B)
                 (A) (A) (B) (B) (A) (A) (B)
 The electronic state is 1-A.
 Alpha  occ. eigenvalues --  -20.55327 -20.55327 -11.26897 -11.26831  -1.37018
 Alpha  occ. eigenvalues --   -1.35391  -1.00179  -0.83008  -0.72415  -0.69802
 Alpha  occ. eigenvalues --   -0.61577  -0.59530  -0.58762  -0.52656  -0.48263
 Alpha  occ. eigenvalues --   -0.43635  -0.42545
 Alpha virt. eigenvalues --    0.22278   0.23736   0.28853   0.31049   0.31096
 Alpha virt. eigenvalues --    0.33365   0.40296   0.41289   0.43936   0.75613
 Alpha virt. eigenvalues --    0.80807   0.81712   0.82017   0.91157   0.93288
 Alpha virt. eigenvalues --    1.06041   1.12180   1.12699   1.13186   1.17936
 Alpha virt. eigenvalues --    1.19833   1.21844   1.24556   1.28903   1.29353
 Alpha virt. eigenvalues --    1.31962   1.47522   1.48878   1.52403   1.70149
 Alpha virt. eigenvalues --    1.74941   1.83838   1.89912   1.99492   2.04299
 Alpha virt. eigenvalues --    2.04869   2.16035   2.23466   2.29774   2.38289
 Alpha virt. eigenvalues --    2.50483   2.54998   2.65526   2.70342   2.74886
 Alpha virt. eigenvalues --    2.77187   2.89014   2.99189   3.02038   3.22025
 Alpha virt. eigenvalues --    3.24067   4.11033   4.25524   4.63445   4.86468
          Condensed to atoms (all electrons):
              1          2          3          4          5          6
     1  C    4.821026   0.353245  -0.021053   0.006074   0.196891  -0.051889
     2  C    0.353245   4.821026   0.006074  -0.021053  -0.051889   0.196891
     3  H   -0.021053   0.006074   0.322462   0.000012   0.260770  -0.000161
     4  H    0.006074  -0.021053   0.000012   0.322462  -0.000161   0.260770
     5  O    0.196891  -0.051889   0.260770  -0.000161   8.418568   0.001919
     6  O   -0.051889   0.196891  -0.000161   0.260770   0.001919   8.418568
     7  H    0.416791  -0.054975  -0.001647  -0.000266  -0.066747   0.003419
     8  H    0.378961  -0.035626  -0.004336  -0.000077  -0.022674   0.000669
     9  H   -0.054975   0.416791  -0.000266  -0.001647   0.003419  -0.066747
    10  H   -0.035626   0.378961  -0.000077  -0.004336   0.000669  -0.022674
              7          8          9         10
     1  C    0.416791   0.378961  -0.054975  -0.035626
     2  C   -0.054975  -0.035626   0.416791   0.378961
     3  H   -0.001647  -0.004336  -0.000266  -0.000077
     4  H   -0.000266  -0.000077  -0.001647  -0.004336
     5  O   -0.066747  -0.022674   0.003419   0.000669
     6  O    0.003419   0.000669  -0.066747  -0.022674
     7  H    0.607394  -0.041016   0.000323  -0.000197
     8  H   -0.041016   0.544883  -0.000197   0.004349
     9  H    0.000323  -0.000197   0.607394  -0.041016
    10  H   -0.000197   0.004349  -0.041016   0.544883
 Mulliken atomic charges:
              1
     1  C   -0.009444
     2  C   -0.009444
     3  H    0.438223
     4  H    0.438223
     5  O   -0.740765
     6  O   -0.740765
     7  H    0.136922
     8  H    0.175064
     9  H    0.136922
    10  H    0.175064
 Sum of Mulliken atomic charges =   0.00000
 Mulliken charges with hydrogens summed into heavy atoms:
              1
     1  C    0.302542
     2  C    0.302542
     5  O   -0.302542
     6  O   -0.302542
 Sum of Mulliken charges with hydrogens summed into heavy atoms =   0.00000
 Electronic spatial extent (au):  <R**2>=            319.6233
 Charge=              0.0000 electrons
 Dipole moment (field-independent basis, Debye):
    X=              0.0000    Y=              0.0000    Z=              1.3682  Tot=              1.3682
 Quadrupole moment (field-independent basis, Debye-Ang):
   XX=            -25.1504   YY=            -17.7718   ZZ=            -26.1296
   XY=              5.6303   XZ=              0.0000   YZ=              0.0000
 Traceless Quadrupole moment (field-independent basis, Debye-Ang):
   XX=             -2.1332   YY=              5.2455   ZZ=             -3.1123
   XY=              5.6303   XZ=              0.0000   YZ=              0.0000
 Octapole moment (field-independent basis, Debye-Ang**2):
  XXX=              0.0000  YYY=              0.0000  ZZZ=             -2.8324  XYY=              0.0000
  XXY=              0.0000  XXZ=             -0.4473  XZZ=              0.0000  YZZ=              0.0000
  YYZ=             -5.7052  XYZ=             -2.6288
 Hexadecapole moment (field-independent basis, Debye-Ang**3):
 XXXX=            -53.0954 YYYY=           -165.5971 ZZZZ=            -65.6047 XXXY=              8.7638
 XXXZ=              0.0000 YYYX=             24.7772 YYYZ=              0.0000 ZZZX=              0.0000
 ZZZY=              0.0000 XXYY=            -54.7081 XXZZ=            -20.6132 YYZZ=            -50.1743
 XXYZ=              0.0000 YYXZ=              0.0000 ZZXY=              2.7924
 N-N= 1.322863989282D+02 E-N=-8.043995680124D+02  KE= 2.286156752237D+02
 Symmetry A    KE= 1.155493372412D+02
 Symmetry B    KE= 1.130663379825D+02
 Calling FoFJK, ICntrl=      2127 FMM=F ISym2X=1 I1Cent= 0 IOpClX= 0 NMat=1 NMatS=1 NMatT=0.
 ***** Axes restored to original set *****
 -------------------------------------------------------------------
 Center     Atomic                   Forces (Hartrees/Bohr)
 Number     Number              X              Y              Z
 -------------------------------------------------------------------
      1        6          -0.040706796    0.015120990    0.036245956
      2        6           0.040706795   -0.015120990    0.036245957
      3        1          -0.000407737    0.000993601   -0.000854769
      4        1           0.000407737   -0.000993601   -0.000854769
      5        8           0.016443416   -0.000758262   -0.031585370
      6        8          -0.016443415    0.000758263   -0.031585370
      7        1           0.015738577   -0.012695508    0.012846982
      8        1          -0.003709158    0.006165118   -0.016652799
      9        1          -0.015738577    0.012695508    0.012846982
     10        1           0.003709158   -0.006165118   -0.016652799
 -------------------------------------------------------------------
 Cartesian Forces:  Max     0.040706796 RMS     0.018926073

 GradGradGradGradGradGradGradGradGradGradGradGradGradGradGradGradGradGrad
 Berny optimization.
 Internal  Forces:  Max     0.031531656 RMS     0.010768364
 Search for a local minimum.
 Step number   1 out of a maximum of   48
 All quantities printed in internal units (Hartrees-Bohrs-Radians)
 Mixed Optimization -- RFO/linear search
 Second derivative matrix not updated -- first step.
     Eigenvalues ---    0.01638   0.01638   0.01994   0.04715   0.06212
     Eigenvalues ---    0.06661   0.11266   0.11281   0.13562   0.13899
     Eigenvalues ---    0.16000   0.16000   0.21998   0.22002   0.31235
     Eigenvalues ---    0.34906   0.34906   0.35170   0.35170   0.44949
     Eigenvalues ---    0.44949   0.58520   0.585201000.000001000.00000
     Eigenvalues --- 1000.000001000.000001000.000001000.000001000.00000
     Eigenvalues --- 1000.000001000.000001000.000001000.000001000.00000
     Eigenvalues --- 1000.000001000.000001000.00000
 RFO step:  Lambda=-2.38171709D-02 EMin= 1.63766989D-02
 Linear search not attempted -- first point.
 Maximum step size (   0.300) exceeded in Quadratic search.
    -- Step size scaled by   0.438
 Iteration  1 RMS(Cart)=  0.03773553 RMS(Int)=  0.00123177
 Iteration  2 RMS(Cart)=  0.00117396 RMS(Int)=  0.00030234
 Iteration  3 RMS(Cart)=  0.00000071 RMS(Int)=  0.00030234
 Iteration  1 RMS(Cart)=  0.00001035 RMS(Int)=  0.00001037
 Iteration  2 RMS(Cart)=  0.00000653 RMS(Int)=  0.00001152
 Iteration  3 RMS(Cart)=  0.00000412 RMS(Int)=  0.00001320
 Iteration  4 RMS(Cart)=  0.00000260 RMS(Int)=  0.00001452
 Iteration  5 RMS(Cart)=  0.00000164 RMS(Int)=  0.00001542
 Iteration  6 RMS(Cart)=  0.00000104 RMS(Int)=  0.00001602
 Iteration  7 RMS(Cart)=  0.00000065 RMS(Int)=  0.00001641
 ClnCor:  largest displacement from symmetrization is 1.19D-10 for atom     4.
 Variable       Old X    -DE/DX   Delta X   Delta X   Delta X     New X
                                 (Linear)    (Quad)   (Total)
    R1        2.85567   0.00200   0.00000   0.00261   0.00261   2.85828
    R2        2.65335   0.01120   0.00000   0.01036   0.01036   2.66371
    R3        2.05827   0.00263   0.00000   0.00309   0.00309   2.06136
    R4        2.05401  -0.00329   0.00000  -0.00383  -0.00383   2.05017
    R5        2.65335   0.01120   0.00000   0.01036   0.01036   2.66371
    R6        2.05827   0.00263   0.00000   0.00309   0.00309   2.06136
    R7        2.05401  -0.00329   0.00000  -0.00383  -0.00383   2.05017
    R8        1.78831   0.00073   0.00000   0.00053   0.00053   1.78883
    R9        1.78831   0.00073   0.00000   0.00053   0.00053   1.78883
    A1        1.89721   0.00562   0.00000   0.00950   0.00907   1.90628
    A2        1.85102  -0.00347   0.00000  -0.00487  -0.00537   1.84565
    A3        1.93607   0.00172   0.00000  -0.00234  -0.00276   1.93331
    A4        1.72136   0.02127   0.00000   0.05835   0.05834   1.77970
    A5        2.13627  -0.02012   0.00000  -0.04495  -0.04492   2.09135
    A6        1.89170  -0.00170   0.00000  -0.00560  -0.00521   1.88649
    A7        1.89721   0.00562   0.00000   0.00950   0.00907   1.90628
    A8        1.85102  -0.00347   0.00000  -0.00487  -0.00537   1.84565
    A9        1.93607   0.00172   0.00000  -0.00234  -0.00276   1.93331
   A10        1.72136   0.02127   0.00000   0.05835   0.05834   1.77970
   A11        2.13627  -0.02012   0.00000  -0.04495  -0.04492   2.09135
   A12        1.89170  -0.00170   0.00000  -0.00560  -0.00521   1.88649
   A13        1.91555   0.00207   0.00000   0.00492   0.00492   1.92047
   A14        1.91555   0.00207   0.00000   0.00492   0.00492   1.92047
    D1        1.79140  -0.03153   0.00000   0.00000   0.00000   1.79140
    D2       -2.65567  -0.00688   0.00000   0.06730   0.06730  -2.58837
    D3       -0.60522  -0.01002   0.00000   0.05657   0.05660  -0.54862
    D4       -2.65567  -0.00688   0.00000   0.06730   0.06730  -2.58837
    D5       -0.81956   0.01777   0.00000   0.13459   0.13460  -0.68496
    D6        1.23089   0.01463   0.00000   0.12386   0.12390   1.35479
    D7       -0.60522  -0.01002   0.00000   0.05657   0.05660  -0.54862
    D8        1.23089   0.01463   0.00000   0.12386   0.12390   1.35479
    D9       -3.00184   0.01149   0.00000   0.11314   0.11320  -2.88864
   D10       -3.01923   0.00604   0.00000   0.02071   0.02078  -2.99844
   D11        1.33912  -0.00065   0.00000  -0.00102  -0.00175   1.33737
   D12       -0.72565  -0.00519   0.00000  -0.01751  -0.01684  -0.74249
   D13       -3.01923   0.00604   0.00000   0.02071   0.02078  -2.99844
   D14        1.33912  -0.00065   0.00000  -0.00102  -0.00175   1.33737
   D15       -0.72565  -0.00519   0.00000  -0.01751  -0.01684  -0.74249
         Item               Value     Threshold  Converged?
 Maximum Force            0.016705     0.000450     NO 
 RMS     Force            0.006777     0.000300     NO 
 Maximum Displacement     0.092063     0.001800     NO 
 RMS     Displacement     0.037732     0.001200     NO 
 Predicted change in Energy=-9.211585D-03
 GradGradGradGradGradGradGradGradGradGradGradGradGradGradGradGradGradGrad

                          Input orientation:                          
 ---------------------------------------------------------------------
 Center     Atomic      Atomic             Coordinates (Angstroms)
 Number     Number       Type             X           Y           Z
 ---------------------------------------------------------------------
      1          6           0        0.342312    0.674361    0.421837
      2          6           0       -0.342312   -0.674361    0.421837
      3          1           0        0.109666    2.364730   -0.519306
      4          1           0       -0.109666   -2.364730   -0.519306
      5          8           0       -0.374139    1.558471   -0.409998
      6          8           0        0.374139   -1.558471   -0.409998
      7          1           0        0.161927    1.097941    1.410743
      8          1           0        1.413764    0.561950    0.293881
      9          1           0       -0.161927   -1.097941    1.410743
     10          1           0       -1.413764   -0.561950    0.293881
 ---------------------------------------------------------------------
                    Distance matrix (angstroms):
                    1          2          3          4          5
     1  C    0.000000
     2  C    1.512535   0.000000
     3  H    1.948645   3.213426   0.000000
     4  H    3.213426   1.948645   4.734543   0.000000
     5  O    1.409574   2.382961   0.946609   3.933624   0.000000
     6  O    2.382961   1.409574   3.933624   0.946609   3.205502
     7  H    1.090823   2.091231   2.309237   3.973530   1.953088
     8  H    1.084905   2.151428   2.368958   3.398171   2.164508
     9  H    2.091231   1.090823   3.973530   2.309237   3.227484
    10  H    2.151428   1.084905   3.398171   2.368958   2.464235
                    6          7          8          9         10
     6  O    0.000000
     7  H    3.227484   0.000000
     8  H    2.464235   1.761182   0.000000
     9  H    1.953088   2.219634   2.546649   0.000000
    10  H    2.164508   2.546649   3.042707   1.761182   0.000000
 Stoichiometry    C2H6O2
 Framework group  C2[X(C2H6O2)]
 Deg. of freedom    13
 Full point group                 C2      NOp   2
 Largest Abelian subgroup         C2      NOp   2
 Largest concise Abelian subgroup C2      NOp   2
                         Standard orientation:                         
 ---------------------------------------------------------------------
 Center     Atomic      Atomic             Coordinates (Angstroms)
 Number     Number       Type             X           Y           Z
 ---------------------------------------------------------------------
      1          6           0        0.351888    0.669414    0.396169
      2          6           0       -0.351888   -0.669414    0.396169
      3          1           0        0.143359    2.362927   -0.544974
      4          1           0       -0.143359   -2.362927   -0.544974
      5          8           0       -0.351888    1.563645   -0.435666
      6          8           0        0.351888   -1.563645   -0.435666
      7          1           0        0.177560    1.095521    1.385075
      8          1           0        1.421630    0.541743    0.268214
      9          1           0       -0.177560   -1.095521    1.385075
     10          1           0       -1.421630   -0.541743    0.268214
 ---------------------------------------------------------------------
 Rotational constants (GHZ):     20.5861395      4.4197354      4.2633805
 Standard basis: 6-31G(d) (6D, 7F)
 There are    36 symmetry adapted basis functions of A   symmetry.
 There are    36 symmetry adapted basis functions of B   symmetry.
 Integral buffers will be    131072 words long.
 Raffenetti 1 integral format.
 Two-electron integral symmetry is turned on.
    72 basis functions,   136 primitive gaussians,    72 cartesian basis functions
    17 alpha electrons       17 beta electrons
       nuclear repulsion energy       131.8426645612 Hartrees.
 NAtoms=   10 NActive=   10 NUniq=    5 SFac= 3.00D+00 NAtFMM=   80 NAOKFM=F Big=F
 One-electron integrals computed using PRISM.
 NBasis=    72 RedAO= T  NBF=    36    36
 NBsUse=    72 1.00D-06 NBFU=    36    36
 Initial guess read from the read-write file.
 B after Tr=     0.000000    0.000000    0.000000
         Rot=    1.000000    0.000000    0.000000    0.000000 Ang=   0.00 deg.
 Initial guess orbital symmetries:
       Occupied  (B) (A) (A) (B) (A) (B) (A) (B) (B) (A) (A) (B)
                 (A) (B) (A) (A) (B)
       Virtual   (A) (B) (A) (B) (A) (B) (B) (B) (A) (A) (B) (A)
                 (B) (B) (A) (A) (B) (B) (A) (A) (B) (A) (B) (A)
                 (B) (A) (A) (B) (B) (B) (A) (A) (B) (A) (B) (A)
                 (B) (A) (B) (A) (B) (A) (B) (A) (A) (B) (B) (B)
                 (A) (A) (B) (B) (A) (A) (B)
 Harris functional with IExCor=  205 diagonalized for initial guess.
 ExpMin= 1.61D-01 ExpMax= 5.48D+03 ExpMxC= 8.25D+02 IAcc=1 IRadAn=         1 AccDes= 0.00D+00
 HarFok:  IExCor=  205 AccDes= 0.00D+00 IRadAn=         1 IDoV= 1
 ScaDFX=  1.000000  1.000000  1.000000  1.000000
 FoFCou: FMM=F IPFlag=           0 FMFlag=      100000 FMFlg1=           0
         NFxFlg=           0 DoJE=T BraDBF=F KetDBF=T FulRan=T
         Omega=  0.000000  0.000000  1.000000  0.000000  0.000000 ICntrl=     500 IOpCl=  0
         NMat0=    1 NMatS0=    1 NMatT0=    0 NMatD0=    1 NMtDS0=    0 NMtDT0=    0
         I1Cent=           4 NGrid=           0.
 Petite list used in FoFCou.
 Requested convergence on RMS density matrix=1.00D-08 within 128 cycles.
 Requested convergence on MAX density matrix=1.00D-06.
 Requested convergence on             energy=1.00D-06.
 No special actions if energy rises.
 Keep R1 ints in memory in canonical form, NReq=4309302.
 SCF Done:  E(RHF) =  -228.905889753     A.U. after   10 cycles
             Convg  =    0.6031D-08             -V/T =  2.0015
 Calling FoFJK, ICntrl=      2127 FMM=F ISym2X=1 I1Cent= 0 IOpClX= 0 NMat=1 NMatS=1 NMatT=0.
 ***** Axes restored to original set *****
 -------------------------------------------------------------------
 Center     Atomic                   Forces (Hartrees/Bohr)
 Number     Number              X              Y              Z
 -------------------------------------------------------------------
      1        6          -0.033605836    0.014805894    0.027440959
      2        6           0.033605835   -0.014805894    0.027440960
      3        1           0.000109625    0.000151579   -0.000079219
      4        1          -0.000109625   -0.000151579   -0.000079219
      5        8           0.014727944   -0.004669339   -0.020009960
      6        8          -0.014727944    0.004669339   -0.020009960
      7        1           0.011710997   -0.007185694    0.005737412
      8        1          -0.002739367    0.004385559   -0.013089192
      9        1          -0.011710997    0.007185694    0.005737411
     10        1           0.002739367   -0.004385559   -0.013089192
 -------------------------------------------------------------------
 Cartesian Forces:  Max     0.033605836 RMS     0.014515489

 GradGradGradGradGradGradGradGradGradGradGradGradGradGradGradGradGradGrad
 Berny optimization.
 Using GEDIIS/GDIIS optimizer.
 Internal  Forces:  Max     0.023834190 RMS     0.007541082
 Search for a local minimum.
 Step number   2 out of a maximum of   48
 All quantities printed in internal units (Hartrees-Bohrs-Radians)
 Mixed Optimization -- RFO/linear search
 Update second derivatives using D2CorX and points    1    2
 DE= -8.72D-03 DEPred=-9.21D-03 R= 9.47D-01
 SS=  1.41D+00  RLast= 3.00D-01 DXNew= 5.0454D-01 8.9995D-01
 Trust test= 9.47D-01 RLast= 3.00D-01 DXMaxT set to 5.05D-01
 Use linear search instead of GDIIS.
 Linear search step of   0.592 exceeds DXMaxT=   0.505 but not scaled.
 Quartic linear search produced a step of  2.00000.
 Iteration  1 RMS(Cart)=  0.06589326 RMS(Int)=  0.01454716
 Iteration  2 RMS(Cart)=  0.01133020 RMS(Int)=  0.00176165
 Iteration  3 RMS(Cart)=  0.00012801 RMS(Int)=  0.00175689
 Iteration  4 RMS(Cart)=  0.00000005 RMS(Int)=  0.00175689
 Iteration  1 RMS(Cart)=  0.00001875 RMS(Int)=  0.00001862
 Iteration  2 RMS(Cart)=  0.00001181 RMS(Int)=  0.00002067
 Iteration  3 RMS(Cart)=  0.00000744 RMS(Int)=  0.00002369
 Iteration  4 RMS(Cart)=  0.00000468 RMS(Int)=  0.00002605
 Iteration  5 RMS(Cart)=  0.00000295 RMS(Int)=  0.00002766
 Iteration  6 RMS(Cart)=  0.00000186 RMS(Int)=  0.00002872
 Iteration  7 RMS(Cart)=  0.00000117 RMS(Int)=  0.00002941
 Iteration  8 RMS(Cart)=  0.00000074 RMS(Int)=  0.00002984
 ClnCor:  largest displacement from symmetrization is 3.96D-10 for atom     4.
 Variable       Old X    -DE/DX   Delta X   Delta X   Delta X     New X
                                 (Linear)    (Quad)   (Total)
    R1        2.85828   0.00224   0.00522   0.00000   0.00522   2.86350
    R2        2.66371   0.00148   0.02073   0.00000   0.02073   2.68444
    R3        2.06136   0.00047   0.00617   0.00000   0.00617   2.06753
    R4        2.05017  -0.00162  -0.00766   0.00000  -0.00766   2.04251
    R5        2.66371   0.00148   0.02073   0.00000   0.02073   2.68444
    R6        2.06136   0.00047   0.00617   0.00000   0.00617   2.06753
    R7        2.05017  -0.00162  -0.00766   0.00000  -0.00766   2.04251
    R8        1.78883   0.00019   0.00105   0.00000   0.00105   1.78988
    R9        1.78883   0.00019   0.00105   0.00000   0.00105   1.78988
    A1        1.90628   0.00310   0.01814   0.00000   0.01550   1.92178
    A2        1.84565   0.00050  -0.01074   0.00000  -0.01377   1.83188
    A3        1.93331   0.00066  -0.00551   0.00000  -0.00787   1.92545
    A4        1.77970   0.01401   0.11667   0.00000   0.11662   1.89632
    A5        2.09135  -0.01475  -0.08985   0.00000  -0.08970   2.00165
    A6        1.88649  -0.00100  -0.01042   0.00000  -0.00827   1.87822
    A7        1.90628   0.00310   0.01814   0.00000   0.01550   1.92178
    A8        1.84565   0.00050  -0.01074   0.00000  -0.01377   1.83188
    A9        1.93331   0.00066  -0.00551   0.00000  -0.00787   1.92545
   A10        1.77970   0.01401   0.11667   0.00000   0.11662   1.89632
   A11        2.09135  -0.01475  -0.08985   0.00000  -0.08970   2.00165
   A12        1.88649  -0.00100  -0.01042   0.00000  -0.00827   1.87822
   A13        1.92047   0.00004   0.00985   0.00000   0.00985   1.93032
   A14        1.92047   0.00004   0.00985   0.00000   0.00985   1.93032
    D1        1.79140  -0.02383  -0.00001   0.00000   0.00000   1.79140
    D2       -2.58837  -0.00635   0.13459   0.00000   0.13453  -2.45384
    D3       -0.54862  -0.00691   0.11320   0.00000   0.11333  -0.43529
    D4       -2.58837  -0.00635   0.13459   0.00000   0.13453  -2.45384
    D5       -0.68496   0.01114   0.26920   0.00000   0.26906  -0.41590
    D6        1.35479   0.01057   0.24780   0.00000   0.24786   1.60265
    D7       -0.54862  -0.00691   0.11320   0.00000   0.11333  -0.43529
    D8        1.35479   0.01057   0.24780   0.00000   0.24786   1.60265
    D9       -2.88864   0.01000   0.22640   0.00000   0.22666  -2.66198
   D10       -2.99844   0.00587   0.04157   0.00000   0.04217  -2.95627
   D11        1.33737  -0.00226  -0.00350   0.00000  -0.00778   1.32959
   D12       -0.74249  -0.00352  -0.03369   0.00000  -0.03001  -0.77250
   D13       -2.99844   0.00587   0.04157   0.00000   0.04217  -2.95627
   D14        1.33737  -0.00226  -0.00350   0.00000  -0.00778   1.32959
   D15       -0.74249  -0.00352  -0.03369   0.00000  -0.03001  -0.77250
         Item               Value     Threshold  Converged?
 Maximum Force            0.010292     0.000450     NO 
 RMS     Force            0.004095     0.000300     NO 
 Maximum Displacement     0.182106     0.001800     NO 
 RMS     Displacement     0.075468     0.001200     NO 
 Predicted change in Energy=-7.387655D-03
 GradGradGradGradGradGradGradGradGradGradGradGradGradGradGradGradGradGrad

                          Input orientation:                          
 ---------------------------------------------------------------------
 Center     Atomic      Atomic             Coordinates (Angstroms)
 Number     Number       Type             X           Y           Z
 ---------------------------------------------------------------------
      1          6           0        0.331138    0.681454    0.441372
      2          6           0       -0.331138   -0.681454    0.441372
      3          1           0        0.098210    2.374850   -0.528150
      4          1           0       -0.098210   -2.374850   -0.528150
      5          8           0       -0.392003    1.575876   -0.392304
      6          8           0        0.392003   -1.575876   -0.392304
      7          1           0        0.258294    1.030843    1.475610
      8          1           0        1.380748    0.588725    0.200630
      9          1           0       -0.258294   -1.030843    1.475610
     10          1           0       -1.380748   -0.588725    0.200630
 ---------------------------------------------------------------------
                    Distance matrix (angstroms):
                    1          2          3          4          5
     1  C    0.000000
     2  C    1.515298   0.000000
     3  H    1.965151   3.235013   0.000000
     4  H    3.235013   1.965151   4.753761   0.000000
     5  O    1.420542   2.407127   0.947165   3.963964   0.000000
     6  O    2.407127   1.420542   3.963964   0.947165   3.247801
     7  H    1.094088   2.085435   2.418065   3.967480   2.051597
     8  H    1.080849   2.145196   2.316521   3.391344   2.113926
     9  H    2.085435   1.094088   3.967480   2.418065   3.209668
    10  H    2.145196   1.080849   3.391344   2.316521   2.452486
                    6          7          8          9         10
     6  O    0.000000
     7  H    3.209668   0.000000
     8  H    2.452486   1.755262   0.000000
     9  H    2.051597   2.125421   2.633444   0.000000
    10  H    2.113926   2.633444   3.002040   1.755262   0.000000
 Stoichiometry    C2H6O2
 Framework group  C2[X(C2H6O2)]
 Deg. of freedom    13
 Full point group                 C2      NOp   2
 Largest Abelian subgroup         C2      NOp   2
 Largest concise Abelian subgroup C2      NOp   2
                         Standard orientation:                         
 ---------------------------------------------------------------------
 Center     Atomic      Atomic             Coordinates (Angstroms)
 Number     Number       Type             X           Y           Z
 ---------------------------------------------------------------------
      1          6           0        0.349385    0.672281    0.402672
      2          6           0       -0.349385   -0.672281    0.402672
      3          1           0        0.162184    2.371341   -0.566850
      4          1           0       -0.162184   -2.371341   -0.566850
      5          8           0       -0.349385    1.585870   -0.431003
      6          8           0        0.349385   -1.585870   -0.431003
      7          1           0        0.285984    1.023507    1.436911
      8          1           0        1.396114    0.551295    0.161931
      9          1           0       -0.285984   -1.023507    1.436911
     10          1           0       -1.396114   -0.551295    0.161931
 ---------------------------------------------------------------------
 Rotational constants (GHZ):     20.4380217      4.3439480      4.1811257
 Standard basis: 6-31G(d) (6D, 7F)
 There are    36 symmetry adapted basis functions of A   symmetry.
 There are    36 symmetry adapted basis functions of B   symmetry.
 Integral buffers will be    131072 words long.
 Raffenetti 1 integral format.
 Two-electron integral symmetry is turned on.
    72 basis functions,   136 primitive gaussians,    72 cartesian basis functions
    17 alpha electrons       17 beta electrons
       nuclear repulsion energy       131.0569195311 Hartrees.
 NAtoms=   10 NActive=   10 NUniq=    5 SFac= 3.00D+00 NAtFMM=   80 NAOKFM=F Big=F
 One-electron integrals computed using PRISM.
 NBasis=    72 RedAO= T  NBF=    36    36
 NBsUse=    72 1.00D-06 NBFU=    36    36
 Initial guess read from the read-write file.
 B after Tr=     0.000000    0.000000    0.000000
         Rot=    1.000000    0.000000    0.000000    0.000000 Ang=   0.00 deg.
 Initial guess orbital symmetries:
       Occupied  (B) (A) (A) (B) (A) (B) (A) (B) (B) (A) (A) (B)
                 (A) (B) (A) (A) (B)
       Virtual   (A) (B) (A) (A) (B) (B) (B) (B) (A) (A) (B) (A)
                 (B) (B) (A) (A) (B) (B) (A) (A) (B) (A) (B) (A)
                 (B) (A) (A) (B) (B) (B) (A) (A) (B) (A) (B) (A)
                 (B) (A) (B) (A) (B) (A) (B) (A) (A) (B) (B) (B)
                 (A) (A) (B) (B) (A) (A) (B)
 Harris functional with IExCor=  205 diagonalized for initial guess.
 ExpMin= 1.61D-01 ExpMax= 5.48D+03 ExpMxC= 8.25D+02 IAcc=1 IRadAn=         1 AccDes= 0.00D+00
 HarFok:  IExCor=  205 AccDes= 0.00D+00 IRadAn=         1 IDoV= 1
 ScaDFX=  1.000000  1.000000  1.000000  1.000000
 FoFCou: FMM=F IPFlag=           0 FMFlag=      100000 FMFlg1=           0
         NFxFlg=           0 DoJE=T BraDBF=F KetDBF=T FulRan=T
         Omega=  0.000000  0.000000  1.000000  0.000000  0.000000 ICntrl=     500 IOpCl=  0
         NMat0=    1 NMatS0=    1 NMatT0=    0 NMatD0=    1 NMtDS0=    0 NMtDT0=    0
         I1Cent=           4 NGrid=           0.
 Petite list used in FoFCou.
 Requested convergence on RMS density matrix=1.00D-08 within 128 cycles.
 Requested convergence on MAX density matrix=1.00D-06.
 Requested convergence on             energy=1.00D-06.
 No special actions if energy rises.
 Keep R1 ints in memory in canonical form, NReq=4309302.
 SCF Done:  E(RHF) =  -228.913695758     A.U. after   10 cycles
             Convg  =    0.5377D-08             -V/T =  2.0018
 Calling FoFJK, ICntrl=      2127 FMM=F ISym2X=1 I1Cent= 0 IOpClX= 0 NMat=1 NMatS=1 NMatT=0.
 ***** Axes restored to original set *****
 -------------------------------------------------------------------
 Center     Atomic                   Forces (Hartrees/Bohr)
 Number     Number              X              Y              Z
 -------------------------------------------------------------------
      1        6          -0.018617447    0.012380150    0.010131753
      2        6           0.018617447   -0.012380150    0.010131754
      3        1           0.001138679   -0.001425298    0.001498251
      4        1          -0.001138679    0.001425298    0.001498251
      5        8           0.010277112   -0.010535801   -0.000073531
      6        8          -0.010277112    0.010535801   -0.000073531
      7        1           0.003674188    0.004456933   -0.004988965
      8        1           0.000482921    0.000755901   -0.006567509
      9        1          -0.003674188   -0.004456933   -0.004988965
     10        1          -0.000482921   -0.000755901   -0.006567509
 -------------------------------------------------------------------
 Cartesian Forces:  Max     0.018617447 RMS     0.007860961

 GradGradGradGradGradGradGradGradGradGradGradGradGradGradGradGradGradGrad
 Berny optimization.
 Using GEDIIS/GDIIS optimizer.
 Internal  Forces:  Max     0.014178572 RMS     0.005202169
 Search for a local minimum.
 Step number   3 out of a maximum of   48
 All quantities printed in internal units (Hartrees-Bohrs-Radians)
 Mixed Optimization -- RFO/linear search
 Update second derivatives using D2CorX and points    2    3
 Use linear search instead of GDIIS.
     Eigenvalues ---    0.01637   0.01638   0.02079   0.05129   0.06469
     Eigenvalues ---    0.06624   0.11198   0.11466   0.13842   0.14323
     Eigenvalues ---    0.16000   0.16376   0.22040   0.22263   0.31225
     Eigenvalues ---    0.34906   0.35011   0.35170   0.35263   0.44949
     Eigenvalues ---    0.47388   0.58520   0.585321000.000001000.00000
     Eigenvalues --- 1000.000001000.000001000.000001000.000001000.00000
     Eigenvalues --- 1000.000001000.000001000.000001000.000001000.00000
     Eigenvalues --- 1000.000001000.000001000.00000
 RFO step:  Lambda=-5.78853852D-03 EMin= 1.63715016D-02
 Quartic linear search produced a step of  0.15328.
 Iteration  1 RMS(Cart)=  0.06191780 RMS(Int)=  0.00327109
 Iteration  2 RMS(Cart)=  0.00289847 RMS(Int)=  0.00078580
 Iteration  3 RMS(Cart)=  0.00000502 RMS(Int)=  0.00078578
 Iteration  4 RMS(Cart)=  0.00000001 RMS(Int)=  0.00078578
 Iteration  1 RMS(Cart)=  0.00000925 RMS(Int)=  0.00000939
 Iteration  2 RMS(Cart)=  0.00000581 RMS(Int)=  0.00001043
 Iteration  3 RMS(Cart)=  0.00000365 RMS(Int)=  0.00001195
 Iteration  4 RMS(Cart)=  0.00000229 RMS(Int)=  0.00001313
 Iteration  5 RMS(Cart)=  0.00000144 RMS(Int)=  0.00001395
 Iteration  6 RMS(Cart)=  0.00000091 RMS(Int)=  0.00001448
 ClnCor:  largest displacement from symmetrization is 1.66D-10 for atom     4.
 Variable       Old X    -DE/DX   Delta X   Delta X   Delta X     New X
                                 (Linear)    (Quad)   (Total)
    R1        2.86350   0.00373   0.00080   0.01250   0.01330   2.87680
    R2        2.68444  -0.01418   0.00318  -0.03306  -0.02988   2.65455
    R3        2.06753  -0.00354   0.00095  -0.01063  -0.00969   2.05784
    R4        2.04251   0.00187  -0.00117   0.00564   0.00447   2.04698
    R5        2.68444  -0.01418   0.00318  -0.03306  -0.02988   2.65455
    R6        2.06753  -0.00354   0.00095  -0.01063  -0.00969   2.05784
    R7        2.04251   0.00187  -0.00117   0.00564   0.00447   2.04698
    R8        1.78988  -0.00083   0.00016  -0.00150  -0.00133   1.78855
    R9        1.78988  -0.00083   0.00016  -0.00150  -0.00133   1.78855
    A1        1.92178  -0.00207   0.00238  -0.01475  -0.01395   1.90783
    A2        1.83188   0.00941  -0.00211   0.08622   0.08332   1.91520
    A3        1.92545  -0.00123  -0.00121  -0.01551  -0.01864   1.90680
    A4        1.89632   0.00028   0.01788  -0.01027   0.00697   1.90329
    A5        2.00165  -0.00438  -0.01375  -0.04499  -0.06012   1.94153
    A6        1.87822  -0.00067  -0.00127   0.01220   0.01082   1.88904
    A7        1.92178  -0.00207   0.00238  -0.01475  -0.01395   1.90783
    A8        1.83188   0.00941  -0.00211   0.08622   0.08332   1.91520
    A9        1.92545  -0.00123  -0.00121  -0.01551  -0.01864   1.90680
   A10        1.89632   0.00028   0.01788  -0.01027   0.00697   1.90329
   A11        2.00165  -0.00438  -0.01375  -0.04499  -0.06012   1.94153
   A12        1.87822  -0.00067  -0.00127   0.01220   0.01082   1.88904
   A13        1.93032  -0.00395   0.00151  -0.02544  -0.02393   1.90639
   A14        1.93032  -0.00395   0.00151  -0.02544  -0.02393   1.90639
    D1        1.79140  -0.00947   0.00000   0.00000   0.00001   1.79141
    D2       -2.45384  -0.00502   0.02062   0.02783   0.04854  -2.40531
    D3       -0.43529  -0.00130   0.01737   0.08120   0.09846  -0.33683
    D4       -2.45384  -0.00502   0.02062   0.02783   0.04854  -2.40531
    D5       -0.41590  -0.00057   0.04124   0.05566   0.09706  -0.31883
    D6        1.60265   0.00315   0.03799   0.10903   0.14699   1.74964
    D7       -0.43529  -0.00130   0.01737   0.08120   0.09846  -0.33683
    D8        1.60265   0.00315   0.03799   0.10903   0.14699   1.74964
    D9       -2.66198   0.00686   0.03474   0.16240   0.19691  -2.46507
   D10       -2.95627   0.00558   0.00646   0.04830   0.05394  -2.90233
   D11        1.32959  -0.00469  -0.00119  -0.04091  -0.04255   1.28705
   D12       -0.77250  -0.00114  -0.00460  -0.01930  -0.02264  -0.79514
   D13       -2.95627   0.00558   0.00646   0.04830   0.05394  -2.90233
   D14        1.32959  -0.00469  -0.00119  -0.04091  -0.04255   1.28705
   D15       -0.77250  -0.00114  -0.00460  -0.01930  -0.02264  -0.79514
         Item               Value     Threshold  Converged?
 Maximum Force            0.014179     0.000450     NO 
 RMS     Force            0.004609     0.000300     NO 
 Maximum Displacement     0.147870     0.001800     NO 
 RMS     Displacement     0.062059     0.001200     NO 
 Predicted change in Energy=-3.243519D-03
 GradGradGradGradGradGradGradGradGradGradGradGradGradGradGradGradGradGrad

                          Input orientation:                          
 ---------------------------------------------------------------------
 Center     Atomic      Atomic             Coordinates (Angstroms)
 Number     Number       Type             X           Y           Z
 ---------------------------------------------------------------------
      1          6           0        0.326068    0.687792    0.470258
      2          6           0       -0.326068   -0.687792    0.470258
      3          1           0        0.099689    2.330038   -0.528005
      4          1           0       -0.099689   -2.330038   -0.528005
      5          8           0       -0.410081    1.550867   -0.358266
      6          8           0        0.410081   -1.550867   -0.358266
      7          1           0        0.336543    1.089725    1.482274
      8          1           0        1.350758    0.597267    0.130896
      9          1           0       -0.336543   -1.089725    1.482274
     10          1           0       -1.350758   -0.597267    0.130896
 ---------------------------------------------------------------------
                    Distance matrix (angstroms):
                    1          2          3          4          5
     1  C    0.000000
     2  C    1.522337   0.000000
     3  H    1.935136   3.207039   0.000000
     4  H    3.207039   1.935136   4.664340   0.000000
     5  O    1.404730   2.388536   0.946459   3.896997   0.000000
     6  O    2.388536   1.404730   3.896997   0.946459   3.208336
     7  H    1.088961   2.150068   2.373963   3.990777   2.039041
     8  H    1.083214   2.139693   2.236475   3.332727   2.061356
     9  H    2.150068   1.088961   3.990777   2.373963   3.219584
    10  H    2.139693   1.083214   3.332727   2.236475   2.395545
                    6          7          8          9         10
     6  O    0.000000
     7  H    3.219584   0.000000
     8  H    2.395545   1.759934   0.000000
     9  H    2.039041   2.281018   2.742107   0.000000
    10  H    2.061356   2.742107   2.953828   1.759934   0.000000
 Stoichiometry    C2H6O2
 Framework group  C2[X(C2H6O2)]
 Deg. of freedom    13
 Full point group                 C2      NOp   2
 Largest Abelian subgroup         C2      NOp   2
 Largest concise Abelian subgroup C2      NOp   2
                         Standard orientation:                         
 ---------------------------------------------------------------------
 Center     Atomic      Atomic             Coordinates (Angstroms)
 Number     Number       Type             X           Y           Z
 ---------------------------------------------------------------------
      1          6           0        0.351632    0.675080    0.409047
      2          6           0       -0.351632   -0.675080    0.409047
      3          1           0        0.187001    2.324661   -0.589216
      4          1           0       -0.187001   -2.324661   -0.589216
      5          8           0       -0.351632    1.565155   -0.419477
      6          8           0        0.351632   -1.565155   -0.419477
      7          1           0        0.377173    1.076337    1.421063
      8          1           0        1.372207    0.546191    0.069685
      9          1           0       -0.377173   -1.076337    1.421063
     10          1           0       -1.372207   -0.546191    0.069685
 ---------------------------------------------------------------------
 Rotational constants (GHZ):     20.5162504      4.4250756      4.2712366
 Standard basis: 6-31G(d) (6D, 7F)
 There are    36 symmetry adapted basis functions of A   symmetry.
 There are    36 symmetry adapted basis functions of B   symmetry.
 Integral buffers will be    131072 words long.
 Raffenetti 1 integral format.
 Two-electron integral symmetry is turned on.
    72 basis functions,   136 primitive gaussians,    72 cartesian basis functions
    17 alpha electrons       17 beta electrons
       nuclear repulsion energy       131.9354831322 Hartrees.
 NAtoms=   10 NActive=   10 NUniq=    5 SFac= 3.00D+00 NAtFMM=   80 NAOKFM=F Big=F
 One-electron integrals computed using PRISM.
 NBasis=    72 RedAO= T  NBF=    36    36
 NBsUse=    72 1.00D-06 NBFU=    36    36
 Initial guess read from the read-write file.
 B after Tr=     0.000000    0.000000    0.000000
         Rot=    1.000000    0.000000    0.000000    0.000000 Ang=   0.00 deg.
 Initial guess orbital symmetries:
       Occupied  (B) (A) (A) (B) (A) (B) (A) (B) (B) (A) (A) (B)
                 (A) (B) (A) (A) (B)
       Virtual   (A) (B) (A) (B) (A) (B) (B) (B) (A) (A) (B) (A)
                 (B) (A) (B) (A) (B) (A) (B) (A) (B) (A) (B) (A)
                 (B) (A) (B) (A) (B) (A) (B) (A) (B) (A) (B) (A)
                 (B) (A) (B) (B) (A) (A) (B) (A) (A) (B) (B) (A)
                 (B) (B) (A) (B) (A) (A) (B)
 Harris functional with IExCor=  205 diagonalized for initial guess.
 ExpMin= 1.61D-01 ExpMax= 5.48D+03 ExpMxC= 8.25D+02 IAcc=1 IRadAn=         1 AccDes= 0.00D+00
 HarFok:  IExCor=  205 AccDes= 0.00D+00 IRadAn=         1 IDoV= 1
 ScaDFX=  1.000000  1.000000  1.000000  1.000000
 FoFCou: FMM=F IPFlag=           0 FMFlag=      100000 FMFlg1=           0
         NFxFlg=           0 DoJE=T BraDBF=F KetDBF=T FulRan=T
         Omega=  0.000000  0.000000  1.000000  0.000000  0.000000 ICntrl=     500 IOpCl=  0
         NMat0=    1 NMatS0=    1 NMatT0=    0 NMatD0=    1 NMtDS0=    0 NMtDT0=    0
         I1Cent=           4 NGrid=           0.
 Petite list used in FoFCou.
 Requested convergence on RMS density matrix=1.00D-08 within 128 cycles.
 Requested convergence on MAX density matrix=1.00D-06.
 Requested convergence on             energy=1.00D-06.
 No special actions if energy rises.
 Keep R1 ints in memory in canonical form, NReq=4309302.
 SCF Done:  E(RHF) =  -228.916589592     A.U. after   11 cycles
             Convg  =    0.3601D-08             -V/T =  2.0015
 Calling FoFJK, ICntrl=      2127 FMM=F ISym2X=1 I1Cent= 0 IOpClX= 0 NMat=1 NMatS=1 NMatT=0.
 ***** Axes restored to original set *****
 -------------------------------------------------------------------
 Center     Atomic                   Forces (Hartrees/Bohr)
 Number     Number              X              Y              Z
 -------------------------------------------------------------------
      1        6          -0.004475808    0.003262733    0.004093586
      2        6           0.004475808   -0.003262733    0.004093586
      3        1          -0.000771620    0.000407742   -0.000120698
      4        1           0.000771620   -0.000407742   -0.000120698
      5        8           0.001100170   -0.001166259   -0.003833641
      6        8          -0.001100170    0.001166259   -0.003833641
      7        1           0.000814298   -0.001298683   -0.000122979
      8        1           0.000918205   -0.002132174   -0.000016268
      9        1          -0.000814298    0.001298683   -0.000122979
     10        1          -0.000918205    0.002132174   -0.000016268
 -------------------------------------------------------------------
 Cartesian Forces:  Max     0.004475808 RMS     0.002209579

 GradGradGradGradGradGradGradGradGradGradGradGradGradGradGradGradGradGrad
 Berny optimization.
 Using GEDIIS/GDIIS optimizer.
 Internal  Forces:  Max     0.003196490 RMS     0.001413753
 Search for a local minimum.
 Step number   4 out of a maximum of   48
 All quantities printed in internal units (Hartrees-Bohrs-Radians)
 Mixed Optimization -- RFO/linear search
 Update second derivatives using D2CorX and points    3    4
 DE= -2.89D-03 DEPred=-3.24D-03 R= 8.92D-01
 SS=  1.41D+00  RLast= 3.90D-01 DXNew= 8.4853D-01 1.1690D+00
 Trust test= 8.92D-01 RLast= 3.90D-01 DXMaxT set to 8.49D-01
 Use linear search instead of GDIIS.
     Eigenvalues ---    0.01625   0.01638   0.02152   0.05364   0.06094
     Eigenvalues ---    0.06499   0.11311   0.12275   0.13762   0.14075
     Eigenvalues ---    0.16000   0.17063   0.22021   0.22042   0.31448
     Eigenvalues ---    0.34906   0.34909   0.35122   0.35170   0.44949
     Eigenvalues ---    0.48633   0.58520   0.585261000.000001000.00000
     Eigenvalues --- 1000.000001000.000001000.000001000.000001000.00000
     Eigenvalues --- 1000.000001000.000001000.000001000.000001000.00000
     Eigenvalues --- 1000.000001000.000001000.00000
 RFO step:  Lambda=-3.03466197D-04 EMin= 1.62490742D-02
 Quartic linear search produced a step of -0.02373.
 Iteration  1 RMS(Cart)=  0.01516557 RMS(Int)=  0.00013255
 Iteration  2 RMS(Cart)=  0.00012762 RMS(Int)=  0.00005415
 Iteration  3 RMS(Cart)=  0.00000001 RMS(Int)=  0.00005415
 Iteration  1 RMS(Cart)=  0.00001195 RMS(Int)=  0.00001212
 Iteration  2 RMS(Cart)=  0.00000753 RMS(Int)=  0.00001346
 Iteration  3 RMS(Cart)=  0.00000474 RMS(Int)=  0.00001542
 Iteration  4 RMS(Cart)=  0.00000299 RMS(Int)=  0.00001696
 Iteration  5 RMS(Cart)=  0.00000188 RMS(Int)=  0.00001801
 Iteration  6 RMS(Cart)=  0.00000119 RMS(Int)=  0.00001870
 Iteration  7 RMS(Cart)=  0.00000075 RMS(Int)=  0.00001915
 ClnCor:  largest displacement from symmetrization is 1.32D-12 for atom     6.
 Variable       Old X    -DE/DX   Delta X   Delta X   Delta X     New X
                                 (Linear)    (Quad)   (Total)
    R1        2.87680  -0.00187  -0.00032  -0.00457  -0.00489   2.87191
    R2        2.65455   0.00169   0.00071   0.00063   0.00134   2.65590
    R3        2.05784  -0.00059   0.00023  -0.00264  -0.00241   2.05543
    R4        2.04698   0.00105  -0.00011   0.00345   0.00334   2.05032
    R5        2.65455   0.00169   0.00071   0.00063   0.00134   2.65590
    R6        2.05784  -0.00059   0.00023  -0.00264  -0.00241   2.05543
    R7        2.04698   0.00105  -0.00011   0.00345   0.00334   2.05032
    R8        1.78855  -0.00006   0.00003  -0.00024  -0.00021   1.78834
    R9        1.78855  -0.00006   0.00003  -0.00024  -0.00021   1.78834
    A1        1.90783  -0.00197   0.00033  -0.01017  -0.00983   1.89800
    A2        1.91520   0.00028  -0.00198   0.00602   0.00410   1.91930
    A3        1.90680  -0.00178   0.00044  -0.01754  -0.01708   1.88972
    A4        1.90329   0.00262  -0.00017   0.01255   0.01243   1.91571
    A5        1.94153   0.00075   0.00143   0.00793   0.00919   1.95072
    A6        1.88904   0.00014  -0.00026   0.00150   0.00119   1.89023
    A7        1.90783  -0.00197   0.00033  -0.01017  -0.00983   1.89800
    A8        1.91520   0.00028  -0.00198   0.00602   0.00410   1.91930
    A9        1.90680  -0.00178   0.00044  -0.01754  -0.01708   1.88972
   A10        1.90329   0.00262  -0.00017   0.01255   0.01243   1.91571
   A11        1.94153   0.00075   0.00143   0.00793   0.00919   1.95072
   A12        1.88904   0.00014  -0.00026   0.00150   0.00119   1.89023
   A13        1.90639   0.00141   0.00057   0.00610   0.00667   1.91306
   A14        1.90639   0.00141   0.00057   0.00610   0.00667   1.91306
    D1        1.79141  -0.00320   0.00000   0.00000   0.00000   1.79140
    D2       -2.40531  -0.00102  -0.00115   0.01279   0.01164  -2.39367
    D3       -0.33683  -0.00175  -0.00234   0.00769   0.00532  -0.33151
    D4       -2.40531  -0.00102  -0.00115   0.01279   0.01164  -2.39367
    D5       -0.31883   0.00115  -0.00230   0.02558   0.02328  -0.29556
    D6        1.74964   0.00042  -0.00349   0.02048   0.01696   1.76660
    D7       -0.33683  -0.00175  -0.00234   0.00769   0.00532  -0.33151
    D8        1.74964   0.00042  -0.00349   0.02048   0.01696   1.76660
    D9       -2.46507  -0.00031  -0.00467   0.01539   0.01064  -2.45443
   D10       -2.90233   0.00104  -0.00128  -0.00246  -0.00367  -2.90601
   D11        1.28705   0.00031   0.00101  -0.01127  -0.01019   1.27685
   D12       -0.79514  -0.00200   0.00054  -0.02601  -0.02561  -0.82074
   D13       -2.90233   0.00104  -0.00128  -0.00246  -0.00367  -2.90601
   D14        1.28705   0.00031   0.00101  -0.01127  -0.01019   1.27685
   D15       -0.79514  -0.00200   0.00054  -0.02601  -0.02561  -0.82074
         Item               Value     Threshold  Converged?
 Maximum Force            0.001982     0.000450     NO 
 RMS     Force            0.001144     0.000300     NO 
 Maximum Displacement     0.042542     0.001800     NO 
 RMS     Displacement     0.015211     0.001200     NO 
 Predicted change in Energy=-1.552585D-04
 GradGradGradGradGradGradGradGradGradGradGradGradGradGradGradGradGradGrad

                          Input orientation:                          
 ---------------------------------------------------------------------
 Center     Atomic      Atomic             Coordinates (Angstroms)
 Number     Number       Type             X           Y           Z
 ---------------------------------------------------------------------
      1          6           0        0.327404    0.685723    0.474573
      2          6           0       -0.327404   -0.685723    0.474573
      3          1           0        0.083857    2.325277   -0.533477
      4          1           0       -0.083857   -2.325277   -0.533477
      5          8           0       -0.415536    1.540989   -0.357185
      6          8           0        0.415536   -1.540989   -0.357185
      7          1           0        0.351607    1.085766    1.485731
      8          1           0        1.349374    0.574755    0.127515
      9          1           0       -0.351607   -1.085766    1.485731
     10          1           0       -1.349374   -0.574755    0.127515
 ---------------------------------------------------------------------
                    Distance matrix (angstroms):
                    1          2          3          4          5
     1  C    0.000000
     2  C    1.519750   0.000000
     3  H    1.940005   3.201784   0.000000
     4  H    3.201784   1.940005   4.653577   0.000000
     5  O    1.405440   2.378621   0.946350   3.884470   0.000000
     6  O    2.378621   1.405440   3.884470   0.946350   3.192064
     7  H    1.087686   2.149807   2.384382   3.987737   2.047455
     8  H    1.084982   2.126227   2.258932   3.301704   2.069650
     9  H    2.149807   1.087686   3.987737   2.384382   3.209404
    10  H    2.126227   1.084982   3.301704   2.258932   2.362914
                    6          7          8          9         10
     6  O    0.000000
     7  H    3.209404   0.000000
     8  H    2.362914   1.761086   0.000000
     9  H    2.047455   2.282556   2.737776   0.000000
    10  H    2.069650   2.737776   2.933363   1.761086   0.000000
 Stoichiometry    C2H6O2
 Framework group  C2[X(C2H6O2)]
 Deg. of freedom    13
 Full point group                 C2      NOp   2
 Largest Abelian subgroup         C2      NOp   2
 Largest concise Abelian subgroup C2      NOp   2
                         Standard orientation:                         
 ---------------------------------------------------------------------
 Center     Atomic      Atomic             Coordinates (Angstroms)
 Number     Number       Type             X           Y           Z
 ---------------------------------------------------------------------
      1          6           0        0.354267    0.672238    0.411648
      2          6           0       -0.354267   -0.672238    0.411648
      3          1           0        0.175752    2.320142   -0.596402
      4          1           0       -0.175752   -2.320142   -0.596402
      5          8           0       -0.354267    1.556217   -0.420110
      6          8           0        0.354267   -1.556217   -0.420110
      7          1           0        0.394272    1.071012    1.422806
      8          1           0        1.371049    0.520940    0.064590
      9          1           0       -0.394272   -1.071012    1.422806
     10          1           0       -1.371049   -0.520940    0.064590
 ---------------------------------------------------------------------
 Rotational constants (GHZ):     20.3667859      4.4636860      4.3068428
 Standard basis: 6-31G(d) (6D, 7F)
 There are    36 symmetry adapted basis functions of A   symmetry.
 There are    36 symmetry adapted basis functions of B   symmetry.
 Integral buffers will be    131072 words long.
 Raffenetti 1 integral format.
 Two-electron integral symmetry is turned on.
    72 basis functions,   136 primitive gaussians,    72 cartesian basis functions
    17 alpha electrons       17 beta electrons
       nuclear repulsion energy       132.1222049820 Hartrees.
 NAtoms=   10 NActive=   10 NUniq=    5 SFac= 3.00D+00 NAtFMM=   80 NAOKFM=F Big=F
 One-electron integrals computed using PRISM.
 NBasis=    72 RedAO= T  NBF=    36    36
 NBsUse=    72 1.00D-06 NBFU=    36    36
 Initial guess read from the read-write file.
 B after Tr=     0.000000    0.000000    0.000000
         Rot=    1.000000    0.000000    0.000000    0.000000 Ang=   0.00 deg.
 Initial guess orbital symmetries:
       Occupied  (A) (B) (A) (B) (A) (B) (A) (B) (B) (A) (A) (B)
                 (A) (B) (A) (A) (B)
       Virtual   (B) (A) (A) (B) (A) (B) (B) (B) (A) (A) (B) (A)
                 (B) (A) (B) (A) (B) (A) (B) (A) (B) (A) (A) (B)
                 (B) (A) (B) (A) (B) (A) (B) (A) (B) (A) (B) (A)
                 (B) (A) (B) (B) (A) (A) (A) (B) (A) (B) (B) (A)
                 (B) (B) (A) (B) (A) (A) (B)
 Harris functional with IExCor=  205 diagonalized for initial guess.
 ExpMin= 1.61D-01 ExpMax= 5.48D+03 ExpMxC= 8.25D+02 IAcc=1 IRadAn=         1 AccDes= 0.00D+00
 HarFok:  IExCor=  205 AccDes= 0.00D+00 IRadAn=         1 IDoV= 1
 ScaDFX=  1.000000  1.000000  1.000000  1.000000
 FoFCou: FMM=F IPFlag=           0 FMFlag=      100000 FMFlg1=           0
         NFxFlg=           0 DoJE=T BraDBF=F KetDBF=T FulRan=T
         Omega=  0.000000  0.000000  1.000000  0.000000  0.000000 ICntrl=     500 IOpCl=  0
         NMat0=    1 NMatS0=    1 NMatT0=    0 NMatD0=    1 NMtDS0=    0 NMtDT0=    0
         I1Cent=           4 NGrid=           0.
 Petite list used in FoFCou.
 Requested convergence on RMS density matrix=1.00D-08 within 128 cycles.
 Requested convergence on MAX density matrix=1.00D-06.
 Requested convergence on             energy=1.00D-06.
 No special actions if energy rises.
 Keep R1 ints in memory in canonical form, NReq=4309302.
 SCF Done:  E(RHF) =  -228.916721626     A.U. after    9 cycles
             Convg  =    0.6264D-08             -V/T =  2.0015
 Calling FoFJK, ICntrl=      2127 FMM=F ISym2X=1 I1Cent= 0 IOpClX= 0 NMat=1 NMatS=1 NMatT=0.
 ***** Axes restored to original set *****
 -------------------------------------------------------------------
 Center     Atomic                   Forces (Hartrees/Bohr)
 Number     Number              X              Y              Z
 -------------------------------------------------------------------
      1        6          -0.002077602    0.001509259    0.002193293
      2        6           0.002077602   -0.001509259    0.002193293
      3        1          -0.000184071    0.000359431    0.000187257
      4        1           0.000184071   -0.000359431    0.000187257
      5        8           0.002124004   -0.000746769   -0.002417379
      6        8          -0.002124004    0.000746769   -0.002417379
      7        1           0.000112687    0.000201777    0.000043730
      8        1          -0.000106713    0.000426775   -0.000006901
      9        1          -0.000112687   -0.000201777    0.000043730
     10        1           0.000106713   -0.000426775   -0.000006901
 -------------------------------------------------------------------
 Cartesian Forces:  Max     0.002417379 RMS     0.001231926

 GradGradGradGradGradGradGradGradGradGradGradGradGradGradGradGradGradGrad
 Berny optimization.
 Using GEDIIS/GDIIS optimizer.
 Internal  Forces:  Max     0.002585732 RMS     0.000776389
 Search for a local minimum.
 Step number   5 out of a maximum of   48
 All quantities printed in internal units (Hartrees-Bohrs-Radians)
 Mixed Optimization -- En-DIIS/RFO-DIIS
 Update second derivatives using D2CorX and points    3    4    5
 DE= -1.32D-04 DEPred=-1.55D-04 R= 8.50D-01
 SS=  1.41D+00  RLast= 6.74D-02 DXNew= 1.4270D+00 2.0226D-01
 Trust test= 8.50D-01 RLast= 6.74D-02 DXMaxT set to 8.49D-01
 Use linear search instead of GDIIS.
     Eigenvalues ---    0.01402   0.01638   0.02292   0.05439   0.06166
     Eigenvalues ---    0.06510   0.11184   0.13710   0.13917   0.13980
     Eigenvalues ---    0.16000   0.16594   0.22017   0.23232   0.33643
     Eigenvalues ---    0.34906   0.34994   0.35170   0.35718   0.44949
     Eigenvalues ---    0.48586   0.58520   0.585671000.000001000.00000
     Eigenvalues --- 1000.000001000.000001000.000001000.000001000.00000
     Eigenvalues --- 1000.000001000.000001000.000001000.000001000.00000
     Eigenvalues --- 1000.000001000.000001000.00000
 RFO step:  Lambda=-2.53335560D-05 EMin= 1.40247574D-02
 Quartic linear search produced a step of -0.12540.
 Iteration  1 RMS(Cart)=  0.00558019 RMS(Int)=  0.00003137
 Iteration  2 RMS(Cart)=  0.00002807 RMS(Int)=  0.00000609
 Iteration  3 RMS(Cart)=  0.00000000 RMS(Int)=  0.00000609
 Iteration  1 RMS(Cart)=  0.00000079 RMS(Int)=  0.00000080
 ClnCor:  largest displacement from symmetrization is 4.88D-13 for atom     4.
 Variable       Old X    -DE/DX   Delta X   Delta X   Delta X     New X
                                 (Linear)    (Quad)   (Total)
    R1        2.87191   0.00152   0.00061   0.00322   0.00384   2.87575
    R2        2.65590   0.00006  -0.00017   0.00049   0.00032   2.65622
    R3        2.05543   0.00012   0.00030  -0.00017   0.00013   2.05556
    R4        2.05032  -0.00014  -0.00042   0.00031  -0.00011   2.05021
    R5        2.65590   0.00006  -0.00017   0.00049   0.00032   2.65622
    R6        2.05543   0.00012   0.00030  -0.00017   0.00013   2.05556
    R7        2.05032  -0.00014  -0.00042   0.00031  -0.00011   2.05021
    R8        1.78834   0.00017   0.00003   0.00021   0.00023   1.78858
    R9        1.78834   0.00017   0.00003   0.00021   0.00023   1.78858
    A1        1.89800   0.00057   0.00123   0.00043   0.00167   1.89967
    A2        1.91930   0.00008  -0.00051   0.00021  -0.00031   1.91899
    A3        1.88972   0.00016   0.00214   0.00000   0.00214   1.89186
    A4        1.91571   0.00077  -0.00156   0.00102  -0.00054   1.91518
    A5        1.95072  -0.00148  -0.00115  -0.00050  -0.00164   1.94908
    A6        1.89023  -0.00011  -0.00015  -0.00116  -0.00131   1.88892
    A7        1.89800   0.00057   0.00123   0.00043   0.00167   1.89967
    A8        1.91930   0.00008  -0.00051   0.00021  -0.00031   1.91899
    A9        1.88972   0.00016   0.00214   0.00000   0.00214   1.89186
   A10        1.91571   0.00077  -0.00156   0.00102  -0.00054   1.91518
   A11        1.95072  -0.00148  -0.00115  -0.00050  -0.00164   1.94908
   A12        1.89023  -0.00011  -0.00015  -0.00116  -0.00131   1.88892
   A13        1.91306   0.00028  -0.00084   0.00297   0.00213   1.91519
   A14        1.91306   0.00028  -0.00084   0.00297   0.00213   1.91519
    D1        1.79140  -0.00259   0.00000   0.00000  -0.00001   1.79140
    D2       -2.39367  -0.00124  -0.00146   0.00164   0.00018  -2.39349
    D3       -0.33151  -0.00123  -0.00067   0.00035  -0.00031  -0.33183
    D4       -2.39367  -0.00124  -0.00146   0.00164   0.00018  -2.39349
    D5       -0.29556   0.00010  -0.00292   0.00328   0.00036  -0.29519
    D6        1.76660   0.00011  -0.00213   0.00199  -0.00013   1.76647
    D7       -0.33151  -0.00123  -0.00067   0.00035  -0.00031  -0.33183
    D8        1.76660   0.00011  -0.00213   0.00199  -0.00013   1.76647
    D9       -2.45443   0.00012  -0.00133   0.00071  -0.00062  -2.45505
   D10       -2.90601   0.00020   0.00046  -0.01361  -0.01315  -2.91915
   D11        1.27685  -0.00071   0.00128  -0.01474  -0.01347   1.26338
   D12       -0.82074  -0.00013   0.00321  -0.01364  -0.01041  -0.83116
   D13       -2.90601   0.00020   0.00046  -0.01361  -0.01315  -2.91915
   D14        1.27685  -0.00071   0.00128  -0.01474  -0.01347   1.26338
   D15       -0.82074  -0.00013   0.00321  -0.01364  -0.01041  -0.83116
         Item               Value     Threshold  Converged?
 Maximum Force            0.001523     0.000450     NO 
 RMS     Force            0.000362     0.000300     NO 
 Maximum Displacement     0.015296     0.001800     NO 
 RMS     Displacement     0.005570     0.001200     NO 
 Predicted change in Energy=-1.558478D-05
 GradGradGradGradGradGradGradGradGradGradGradGradGradGradGradGradGradGrad

                          Input orientation:                          
 ---------------------------------------------------------------------
 Center     Atomic      Atomic             Coordinates (Angstroms)
 Number     Number       Type             X           Y           Z
 ---------------------------------------------------------------------
      1          6           0        0.328284    0.686427    0.472422
      2          6           0       -0.328284   -0.686427    0.472422
      3          1           0        0.082118    2.333372   -0.526009
      4          1           0       -0.082118   -2.333372   -0.526009
      5          8           0       -0.412698    1.544025   -0.358968
      6          8           0        0.412698   -1.544025   -0.358968
      7          1           0        0.352761    1.086122    1.483784
      8          1           0        1.350556    0.577046    0.125928
      9          1           0       -0.352761   -1.086122    1.483784
     10          1           0       -1.350556   -0.577046    0.125928
 ---------------------------------------------------------------------
                    Distance matrix (angstroms):
                    1          2          3          4          5
     1  C    0.000000
     2  C    1.521779   0.000000
     3  H    1.941620   3.206942   0.000000
     4  H    3.206942   1.941620   4.669632   0.000000
     5  O    1.405609   2.381858   0.946474   3.895047   0.000000
     6  O    2.381858   1.405609   3.895047   0.946474   3.196455
     7  H    1.087754   2.151420   2.380787   3.990153   2.047275
     8  H    1.084924   2.129536   2.262440   3.308792   2.068631
     9  H    2.151420   1.087754   3.990153   2.380787   3.212008
    10  H    2.129536   1.084924   3.308792   2.262440   2.369312
                    6          7          8          9         10
     6  O    0.000000
     7  H    3.212008   0.000000
     8  H    2.369312   1.760263   0.000000
     9  H    2.047275   2.283945   2.740654   0.000000
    10  H    2.068631   2.740654   2.937334   1.760263   0.000000
 Stoichiometry    C2H6O2
 Framework group  C2[X(C2H6O2)]
 Deg. of freedom    13
 Full point group                 C2      NOp   2
 Largest Abelian subgroup         C2      NOp   2
 Largest concise Abelian subgroup C2      NOp   2
                         Standard orientation:                         
[...]
 SCF Done:  E(RHF) =  -228.916783682     A.U. after   10 cycles
             Convg  =    0.3038D-08             -V/T =  2.0015
 Calling FoFJK, ICntrl=      2127 FMM=F ISym2X=1 I1Cent= 0 IOpClX= 0 NMat=1 NMatS=1 NMatT=0.
 ***** Axes restored to original set *****
 -------------------------------------------------------------------
 Center     Atomic                   Forces (Hartrees/Bohr)
 Number     Number              X              Y              Z
 -------------------------------------------------------------------
      1        6          -0.002199437    0.000776937    0.002045161
      2        6           0.002199437   -0.000776937    0.002045161
      3        1           0.000054480   -0.000101379    0.000072671
      4        1          -0.000054480    0.000101379    0.000072671
      5        8           0.001286367   -0.000736870   -0.002061146
      6        8          -0.001286367    0.000736870   -0.002061146
      7        1          -0.000057149   -0.000006422   -0.000037770
      8        1           0.000026530    0.000012950   -0.000018917
      9        1           0.000057149    0.000006422   -0.000037770
     10        1          -0.000026530   -0.000012950   -0.000018917
 -------------------------------------------------------------------
 Cartesian Forces:  Max     0.002199437 RMS     0.001035837

 GradGradGradGradGradGradGradGradGradGradGradGradGradGradGradGradGradGrad
 Berny optimization.
 Using GEDIIS/GDIIS optimizer.
 Internal  Forces:  Max     0.002364315 RMS     0.000638267
 Search for a local minimum.
 Step number   8 out of a maximum of   48
 All quantities printed in internal units (Hartrees-Bohrs-Radians)
 Mixed Optimization -- En-DIIS/RFO-DIIS
 Swaping is turned off.
 Update second derivatives using D2CorX and points    3    4    5    6    7
                                                      8
 DE= -1.48D-05 DEPred=-1.31D-05 R= 1.13D+00
 SS=  1.41D+00  RLast= 1.04D-01 DXNew= 1.4270D+00 3.1323D-01
 Trust test= 1.13D+00 RLast= 1.04D-01 DXMaxT set to 8.49D-01
     Eigenvalues ---    0.00251   0.01638   0.02252   0.05426   0.06160
     Eigenvalues ---    0.06696   0.11199   0.13719   0.14157   0.14879
     Eigenvalues ---    0.16000   0.19446   0.22016   0.23453   0.34906
     Eigenvalues ---    0.34940   0.35170   0.35216   0.44949   0.45154
     Eigenvalues ---    0.53234   0.58520   0.596151000.000001000.00000
     Eigenvalues --- 1000.000001000.000001000.000001000.000001000.00000
     Eigenvalues --- 1000.000001000.000001000.000001000.000001000.00000
     Eigenvalues --- 1000.000001000.000001000.00000
 En-DIIS/RFO-DIIS IScMMF=        0 using points:     8    7    6    5
 RFO step:  Lambda=-1.09002454D-06.
 DIIS coeffs:      0.93627      0.23637     -0.42018      0.24754
 Iteration  1 RMS(Cart)=  0.00051899 RMS(Int)=  0.00000050
 Iteration  2 RMS(Cart)=  0.00000011 RMS(Int)=  0.00000050
 Iteration  1 RMS(Cart)=  0.00000021 RMS(Int)=  0.00000021
 ClnCor:  largest displacement from symmetrization is 5.05D-13 for atom     4.
 Variable       Old X    -DE/DX   Delta X   Delta X   Delta X     New X
                                  (DIIS)     (GDIIS)  (Total)
    R1        2.87693  -0.00044  -0.00046  -0.00051  -0.00097   2.87596
    R2        2.65499  -0.00004  -0.00017   0.00025   0.00008   2.65507
    R3        2.05602  -0.00004  -0.00002  -0.00006  -0.00008   2.05594
    R4        2.05018   0.00003   0.00001   0.00006   0.00007   2.05025
    R5        2.65499  -0.00004  -0.00017   0.00025   0.00008   2.65507
    R6        2.05602  -0.00004  -0.00002  -0.00006  -0.00008   2.05594
    R7        2.05018   0.00003   0.00001   0.00006   0.00007   2.05025
    R8        1.78886  -0.00007  -0.00004  -0.00003  -0.00008   1.78878
    R9        1.78886  -0.00007  -0.00004  -0.00003  -0.00008   1.78878
    A1        1.89951  -0.00016  -0.00044  -0.00006  -0.00050   1.89901
    A2        1.91795   0.00022  -0.00014   0.00012  -0.00001   1.91794
    A3        1.89217  -0.00014  -0.00012   0.00058   0.00045   1.89263
    A4        1.91659   0.00096   0.00033  -0.00051  -0.00018   1.91640
    A5        1.94851  -0.00089   0.00017  -0.00013   0.00004   1.94854
    A6        1.88893   0.00000   0.00019   0.00003   0.00022   1.88915
    A7        1.89951  -0.00016  -0.00044  -0.00006  -0.00050   1.89901
    A8        1.91795   0.00022  -0.00014   0.00012  -0.00001   1.91794
    A9        1.89217  -0.00014  -0.00012   0.00058   0.00045   1.89263
   A10        1.91659   0.00096   0.00033  -0.00051  -0.00018   1.91640
   A11        1.94851  -0.00089   0.00017  -0.00013   0.00004   1.94854
   A12        1.88893   0.00000   0.00019   0.00003   0.00022   1.88915
   A13        1.91383  -0.00021  -0.00054  -0.00020  -0.00074   1.91309
   A14        1.91383  -0.00021  -0.00054  -0.00020  -0.00074   1.91309
    D1        1.79140  -0.00236   0.00000   0.00000   0.00000   1.79140
    D2       -2.39248  -0.00115   0.00005  -0.00059  -0.00054  -2.39303
    D3       -0.33121  -0.00111   0.00014  -0.00016  -0.00002  -0.33123
    D4       -2.39248  -0.00115   0.00005  -0.00059  -0.00054  -2.39303
    D5       -0.29318   0.00006   0.00010  -0.00119  -0.00109  -0.29427
    D6        1.76809   0.00010   0.00018  -0.00075  -0.00056   1.76753
    D7       -0.33121  -0.00111   0.00014  -0.00016  -0.00002  -0.33123
    D8        1.76809   0.00010   0.00018  -0.00075  -0.00056   1.76753
    D9       -2.45382   0.00015   0.00027  -0.00031  -0.00004  -2.45387
   D10       -2.99364   0.00053   0.00032  -0.00043  -0.00011  -2.99375
   D11        1.18940  -0.00023   0.00056  -0.00023   0.00033   1.18973
   D12       -0.90572  -0.00029  -0.00001   0.00016   0.00015  -0.90557
   D13       -2.99364   0.00053   0.00032  -0.00043  -0.00011  -2.99375
   D14        1.18940  -0.00023   0.00056  -0.00023   0.00033   1.18973
   D15       -0.90572  -0.00029  -0.00001   0.00016   0.00015  -0.90557
         Item               Value     Threshold  Converged?
 Maximum Force            0.000437     0.000450     YES
 RMS     Force            0.000102     0.000300     YES
 Maximum Displacement     0.001571     0.001800     YES
 RMS     Displacement     0.000519     0.001200     YES
 Predicted change in Energy=-4.891262D-07
 Optimization completed.
    -- Stationary point found.
                           ----------------------------
                           !   Optimized Parameters   !
                           ! (Angstroms and Degrees)  !
 --------------------------                            --------------------------
 ! Name  Definition              Value          Derivative Info.                !
 --------------------------------------------------------------------------------
 ! R1    R(1,2)                  1.5224         -DE/DX =   -0.0004              !
 ! R2    R(1,5)                  1.405          -DE/DX =    0.0                 !
 ! R3    R(1,7)                  1.088          -DE/DX =    0.0                 !
 ! R4    R(1,8)                  1.0849         -DE/DX =    0.0                 !
 ! R5    R(2,6)                  1.405          -DE/DX =    0.0                 !
 ! R6    R(2,9)                  1.088          -DE/DX =    0.0                 !
 ! R7    R(2,10)                 1.0849         -DE/DX =    0.0                 !
 ! R8    R(3,5)                  0.9466         -DE/DX =   -0.0001              !
 ! R9    R(4,6)                  0.9466         -DE/DX =   -0.0001              !
 ! A1    A(2,1,5)              108.8339         -DE/DX =   -0.0002              !
 ! A2    A(2,1,7)              109.8907         -DE/DX =    0.0002              !
 ! A3    A(2,1,8)              108.4135         -DE/DX =   -0.0001              !
 ! A4    A(5,1,7)              109.8123         -DE/DX =    0.001               !
 ! A5    A(5,1,8)              111.6411         -DE/DX =   -0.0009              !
 ! A6    A(7,1,8)              108.2279         -DE/DX =    0.0                 !
 ! A7    A(1,2,6)              108.8339         -DE/DX =   -0.0002              !
 ! A8    A(1,2,9)              109.8907         -DE/DX =    0.0002              !
 ! A9    A(1,2,10)             108.4135         -DE/DX =   -0.0001              !
 ! A10   A(6,2,9)              109.8123         -DE/DX =    0.001               !
 ! A11   A(6,2,10)             111.6411         -DE/DX =   -0.0009              !
 ! A12   A(9,2,10)             108.2279         -DE/DX =    0.0                 !
 ! A13   A(1,5,3)              109.6545         -DE/DX =   -0.0002              !
 ! A14   A(2,6,4)              109.6545         -DE/DX =   -0.0002              !
 ! D1    D(5,1,2,6)            102.6396         -DE/DX =   -0.0024              !
 ! D2    D(5,1,2,9)           -137.0792         -DE/DX =   -0.0012              !
 ! D3    D(5,1,2,10)           -18.9771         -DE/DX =   -0.0011              !
 ! D4    D(7,1,2,6)           -137.0792         -DE/DX =   -0.0012              !
 ! D5    D(7,1,2,9)            -16.7981         -DE/DX =    0.0001              !
 ! D6    D(7,1,2,10)           101.3041         -DE/DX =    0.0001              !
 ! D7    D(8,1,2,6)            -18.9771         -DE/DX =   -0.0011              !
 ! D8    D(8,1,2,9)            101.3041         -DE/DX =    0.0001              !
 ! D9    D(8,1,2,10)          -140.5938         -DE/DX =    0.0001              !
 ! D10   D(2,1,5,3)           -171.5229         -DE/DX =    0.0005              !
 ! D11   D(7,1,5,3)             68.1475         -DE/DX =   -0.0002              !
 ! D12   D(8,1,5,3)            -51.8941         -DE/DX =   -0.0003              !
 ! D13   D(1,2,6,4)           -171.5229         -DE/DX =    0.0005              !
 ! D14   D(9,2,6,4)             68.1475         -DE/DX =   -0.0002              !
 ! D15   D(10,2,6,4)           -51.8941         -DE/DX =   -0.0003              !
 --------------------------------------------------------------------------------
 GradGradGradGradGradGradGradGradGradGradGradGradGradGradGradGradGradGrad

                          Input orientation:                          
 ---------------------------------------------------------------------
 Center     Atomic      Atomic             Coordinates (Angstroms)
 Number     Number       Type             X           Y           Z
 ---------------------------------------------------------------------
      1          6           0        0.332189    0.684894    0.461441
      2          6           0       -0.332189   -0.684894    0.461441
      3          1           0        0.067339    2.359184   -0.482634
      4          1           0       -0.067339   -2.359184   -0.482634
      5          8           0       -0.403870    1.545990   -0.369608
      6          8           0        0.403870   -1.545990   -0.369608
      7          1           0        0.359272    1.083168    1.473561
      8          1           0        1.353685    0.570317    0.114396
      9          1           0       -0.359272   -1.083168    1.473561
     10          1           0       -1.353685   -0.570317    0.114396
 ---------------------------------------------------------------------
                    Distance matrix (angstroms):
                    1          2          3          4          5
     1  C    0.000000
     2  C    1.522405   0.000000
     3  H    1.940277   3.212057   0.000000
     4  H    3.212057   1.940277   4.720290   0.000000
     5  O    1.404960   2.381727   0.946625   3.921277   0.000000
     6  O    2.381727   1.404960   3.921277   0.946625   3.195745
     7  H    1.087999   2.151406   2.353751   3.982271   2.047892
     8  H    1.084906   2.130297   2.282800   3.310247   2.067655
     9  H    2.151406   1.087999   3.982271   2.353751   3.211189
    10  H    2.130297   1.084906   3.310247   2.282800   2.369634
                    6          7          8          9         10
     6  O    0.000000
     7  H    3.211189   0.000000
     8  H    2.369634   1.760455   0.000000
     9  H    2.047892   2.282392   2.741453   0.000000
    10  H    2.067655   2.741453   2.937839   1.760455   0.000000
 Stoichiometry    C2H6O2
 Framework group  C2[X(C2H6O2)]
 Deg. of freedom    13
 Full point group                 C2      NOp   2
 Largest Abelian subgroup         C2      NOp   2
 Largest concise Abelian subgroup C2      NOp   2
                         Standard orientation:                         
 ---------------------------------------------------------------------
 Center     Atomic      Atomic             Coordinates (Angstroms)
 Number     Number       Type             X           Y           Z
 ---------------------------------------------------------------------
      1          6           0        0.354013    0.673872    0.407494
      2          6           0       -0.354013   -0.673872    0.407494
      3          1           0        0.143069    2.355805   -0.536582
      4          1           0       -0.143069   -2.355805   -0.536582
      5          8           0       -0.354013    1.558163   -0.423555
      6          8           0        0.354013   -1.558163   -0.423555
      7          1           0        0.393872    1.071071    1.419614
      8          1           0        1.371302    0.526550    0.060448
      9          1           0       -0.393872   -1.071071    1.419614
     10          1           0       -1.371302   -0.526550    0.060448
 ---------------------------------------------------------------------
 Rotational constants (GHZ):     20.5319304      4.4415404      4.2899290

 **********************************************************************

            Population analysis using the SCF density.

 **********************************************************************

 Orbital symmetries:
       Occupied  (A) (B) (A) (B) (A) (B) (A) (B) (B) (A) (A) (B)
                 (A) (B) (A) (A) (B)
       Virtual   (A) (B) (A) (B) (A) (B) (B) (B) (A) (A) (B) (A)
                 (B) (A) (B) (A) (B) (A) (B) (A) (B) (A) (A) (B)
                 (B) (A) (B) (B) (A) (A) (B) (A) (B) (A) (B) (B)
                 (A) (A) (B) (B) (A) (A) (A) (B) (A) (B) (B) (A)
                 (B) (A) (B) (B) (A) (A) (B)
 The electronic state is 1-A.
 Alpha  occ. eigenvalues --  -20.55441 -20.55441 -11.26945 -11.26883  -1.36919
 Alpha  occ. eigenvalues --   -1.35307  -0.99790  -0.83280  -0.71863  -0.70085
 Alpha  occ. eigenvalues --   -0.61957  -0.59437  -0.58533  -0.52718  -0.47386
 Alpha  occ. eigenvalues --   -0.44615  -0.43442
 Alpha virt. eigenvalues --    0.22887   0.22978   0.28954   0.31013   0.31687
 Alpha virt. eigenvalues --    0.35297   0.39327   0.41119   0.45021   0.75608
 Alpha virt. eigenvalues --    0.80383   0.81558   0.85288   0.88029   0.95471
 Alpha virt. eigenvalues --    1.07567   1.11489   1.12146   1.12993   1.13540
 Alpha virt. eigenvalues --    1.17501   1.21482   1.23909   1.24259   1.29368
 Alpha virt. eigenvalues --    1.31482   1.44424   1.48703   1.49085   1.72991
 Alpha virt. eigenvalues --    1.74766   1.82001   1.92091   1.99425   2.04952
 Alpha virt. eigenvalues --    2.12148   2.13146   2.26161   2.35036   2.40711
 Alpha virt. eigenvalues --    2.43678   2.48321   2.68423   2.68437   2.75033
 Alpha virt. eigenvalues --    2.79933   2.85916   2.97887   2.98511   3.21705
 Alpha virt. eigenvalues --    3.22052   4.11887   4.25100   4.62318   4.88207
          Condensed to atoms (all electrons):
              1          2          3          4          5          6
     1  C    4.813584   0.345680  -0.022990   0.006254   0.215032  -0.050571
     2  C    0.345680   4.813584   0.006254  -0.022990  -0.050571   0.215032
     3  H   -0.022990   0.006254   0.321729   0.000012   0.262733  -0.000186
     4  H    0.006254  -0.022990   0.000012   0.321729  -0.000186   0.262733
     5  O    0.215032  -0.050571   0.262733  -0.000186   8.387146   0.001937
     6  O   -0.050571   0.215032  -0.000186   0.262733   0.001937   8.387146
     7  H    0.395876  -0.047308  -0.002173  -0.000248  -0.043169   0.002668
     8  H    0.396899  -0.043288  -0.004598  -0.000006  -0.034707   0.000974
     9  H   -0.047308   0.395876  -0.000248  -0.002173   0.002668  -0.043169
    10  H   -0.043288   0.396899  -0.000006  -0.004598   0.000974  -0.034707
              7          8          9         10
     1  C    0.395876   0.396899  -0.047308  -0.043288
     2  C   -0.047308  -0.043288   0.395876   0.396899
     3  H   -0.002173  -0.004598  -0.000248  -0.000006
     4  H   -0.000248  -0.000006  -0.002173  -0.004598
     5  O   -0.043169  -0.034707   0.002668   0.000974
     6  O    0.002668   0.000974  -0.043169  -0.034707
     7  H    0.593109  -0.040482   0.000297   0.001997
     8  H   -0.040482   0.546694   0.001997   0.004398
     9  H    0.000297   0.001997   0.593109  -0.040482
    10  H    0.001997   0.004398  -0.040482   0.546694
 Mulliken atomic charges:
              1
     1  C   -0.009167
     2  C   -0.009167
     3  H    0.439473
     4  H    0.439473
     5  O   -0.741858
     6  O   -0.741858
     7  H    0.139433
     8  H    0.172120
     9  H    0.139433
    10  H    0.172120
 Sum of Mulliken atomic charges =   0.00000
 Mulliken charges with hydrogens summed into heavy atoms:
              1
     1  C    0.302385
     2  C    0.302385
     5  O   -0.302385
     6  O   -0.302385
 Sum of Mulliken charges with hydrogens summed into heavy atoms =   0.00000
 Electronic spatial extent (au):  <R**2>=            320.3764
 Charge=              0.0000 electrons
 Dipole moment (field-independent basis, Debye):
    X=              0.0000    Y=              0.0000    Z=              1.3165  Tot=              1.3165
 Quadrupole moment (field-independent basis, Debye-Ang):
   XX=            -25.5968   YY=            -17.9890   ZZ=            -25.4496
   XY=              5.8997   XZ=              0.0000   YZ=              0.0000
 Traceless Quadrupole moment (field-independent basis, Debye-Ang):
   XX=             -2.5850   YY=              5.0228   ZZ=             -2.4378
   XY=              5.8997   XZ=              0.0000   YZ=              0.0000
 Octapole moment (field-independent basis, Debye-Ang**2):
  XXX=              0.0000  YYY=              0.0000  ZZZ=             -1.9638  XYY=              0.0000
  XXY=              0.0000  XXZ=             -1.0679  XZZ=              0.0000  YZZ=              0.0000
  YYZ=             -6.0869  XYZ=             -2.4819
 Hexadecapole moment (field-independent basis, Debye-Ang**3):
 XXXX=            -54.9119 YYYY=           -167.8955 ZZZZ=            -63.6161 XXXY=              7.3131
 XXXZ=              0.0000 YYYX=             25.1474 YYYZ=              0.0000 ZZZX=              0.0000
 ZZZY=              0.0000 XXYY=            -55.0546 XXZZ=            -20.6432 YYZZ=            -49.4506
 XXYZ=              0.0000 YYXZ=              0.0000 ZZXY=              3.0118
 N-N= 1.320232611496D+02 E-N=-8.038458605792D+02  KE= 2.285666090725D+02
 Symmetry A    KE= 1.155485815491D+02
 Symmetry B    KE= 1.130180275234D+02
 1\1\GINC-NODE8\FOpt\RHF\6-31G(d)\C2H6O2\WUCH\14-Sep-2010\0\\#HF/6-31G*
  Opt=ModRed MaxDisk=32GB\\12-ethanediol Rotatable Bond Optimization on
  node8.bme.utexas.edu\\0,1\C,0.3321893727,0.6848935223,0.4614414536\C,
 -0.3321893806,-0.6848935261,0.4614414419\H,0.0673391788,2.3591843363,-
 0.4826341197\H,-0.0673391665,-2.3591843339,-0.4826341368\O,-0.40387018
 97,1.5459901551,-0.3696077426\O,0.4038701997,-1.5459901534,-0.36960774
 41\H,0.3592721274,1.0831677182,1.4735612806\H,1.353684998,0.5703173773
 ,0.1143961322\H,-0.3592721571,-1.0831677287,1.4735612657\H,-1.35368499
 85,-0.5703173789,0.1143960993\\Version=EM64L-G09RevA.02\State=1-A\HF=-
 228.9167837\RMSD=3.038e-09\RMSF=1.036e-03\Dipole=0.,0.,0.5179544\Quadr
 upole=-2.1976489,4.0100853,-1.8124363,4.1956832,0.,0.\PG=C02 [X(C2H6O2
 )]\\@


 QED = W**5 (WHICH WAS WHAT WE WANTED)
 Job cpu time:  0 days  0 hours  0 minutes 36.1 seconds.
 File lengths (MBytes):  RWF=      5 Int=      0 D2E=      0 Chk=      2 Scr=      1
 Normal termination of Gaussian 09 at Tue Sep 14 13:47:02 2010.
