 Entering Gaussian System, Link 0=/opt/g09/gaussian/g09/bin/g09
 Input=12-ethanediol-opt-5-1-2-6-313.com
 Output=12-ethanediol-opt-5-1-2-6-313.log
 Initial command:
 /opt/g09/gaussian/g09/bin/l1.exe /scratch/Gau-12-ethanediol/Gau-19663.inp -scrdir=/scratch/Gau-12-ethanediol/
 Entering Link 1 = /opt/g09/gaussian/g09/bin/l1.exe PID=     19664.
  
 Copyright (c) 1988,1990,1992,1993,1995,1998,2003,2009, Gaussian, Inc.
                  All Rights Reserved.
  
 This is part of the Gaussian(R) 09 program.  It is based on
 the Gaussian(R) 03 system (copyright 2003, Gaussian, Inc.),
 the Gaussian(R) 98 system (copyright 1998, Gaussian, Inc.),
 the Gaussian(R) 94 system (copyright 1995, Gaussian, Inc.),
 the Gaussian 92(TM) system (copyright 1992, Gaussian, Inc.),
 the Gaussian 90(TM) system (copyright 1990, Gaussian, Inc.),
 the Gaussian 88(TM) system (copyright 1988, Gaussian, Inc.),
 the Gaussian 86(TM) system (copyright 1986, Carnegie Mellon
 University), and the Gaussian 82(TM) system (copyright 1983,
 Carnegie Mellon University). Gaussian is a federally registered
 trademark of Gaussian, Inc.
  
 This software contains proprietary and confidential information,
 including trade secrets, belonging to Gaussian, Inc.
  
 This software is provided under written license and may be
 used, copied, transmitted, or stored only in accord with that
 written license.
  
 The following legend is applicable only to US Government
 contracts under FAR:
  
                    RESTRICTED RIGHTS LEGEND
  
 Use, reproduction and disclosure by the US Government is
 subject to restrictions as set forth in subparagraphs (a)
 and (c) of the Commercial Computer Software - Restricted
 Rights clause in FAR 52.227-19.
  
 Gaussian, Inc.
 340 Quinnipiac St., Bldg. 40, Wallingford CT 06492
  
  
 ---------------------------------------------------------------
 Warning -- This program may not be used in any manner that
 competes with the business of Gaussian, Inc. or will provide
 assistance to any competitor of Gaussian, Inc.  The licensee
 of this program is prohibited from giving any competitor of
 Gaussian, Inc. access to this program.  By using this program,
 the user acknowledges that Gaussian, Inc. is engaged in the
 business of creating and licensing software in the field of
 computational chemistry and represents and warrants to the
 licensee that it is not a competitor of Gaussian, Inc. and that
 it will not use this program in any manner prohibited above.
 ---------------------------------------------------------------
  

 Cite this work as:
 Gaussian 09, Revision A.02,
 M. J. Frisch, G. W. Trucks, H. B. Schlegel, G. E. Scuseria, 
 M. A. Robb, J. R. Cheeseman, G. Scalmani, V. Barone, B. Mennucci, 
 G. A. Petersson, H. Nakatsuji, M. Caricato, X. Li, H. P. Hratchian, 
 A. F. Izmaylov, J. Bloino, G. Zheng, J. L. Sonnenberg, M. Hada, 
 M. Ehara, K. Toyota, R. Fukuda, J. Hasegawa, M. Ishida, T. Nakajima, 
 Y. Honda, O. Kitao, H. Nakai, T. Vreven, J. A. Montgomery, Jr., 
 J. E. Peralta, F. Ogliaro, M. Bearpark, J. J. Heyd, E. Brothers, 
 K. N. Kudin, V. N. Staroverov, R. Kobayashi, J. Normand, 
 K. Raghavachari, A. Rendell, J. C. Burant, S. S. Iyengar, J. Tomasi, 
 M. Cossi, N. Rega, J. M. Millam, M. Klene, J. E. Knox, J. B. Cross, 
 V. Bakken, C. Adamo, J. Jaramillo, R. Gomperts, R. E. Stratmann, 
 O. Yazyev, A. J. Austin, R. Cammi, C. Pomelli, J. W. Ochterski, 
 R. L. Martin, K. Morokuma, V. G. Zakrzewski, G. A. Voth, 
 P. Salvador, J. J. Dannenberg, S. Dapprich, A. D. Daniels, 
 O. Farkas, J. B. Foresman, J. V. Ortiz, J. Cioslowski, 
 and D. J. Fox, Gaussian, Inc., Wallingford CT, 2009.
 
 ******************************************
 Gaussian 09:  EM64L-G09RevA.02 11-Jun-2009
                14-Sep-2010 
 ******************************************
 %RWF=/scratch/Gau-12-ethanediol/,32GB
 %Nosave
 %Chk=12-ethanediol-opt-5-1-2-6-313.chk
 %Mem=389242KB
 %Nproc=1
 Will use up to    1 processors via shared memory.
 ----------------------------------
 #HF/6-31G* Opt=ModRed MaxDisk=32GB
 ----------------------------------
 1/18=120,19=15,38=1/1,3;
 2/9=110,12=2,17=6,18=5,40=1/2;
 3/5=1,6=6,7=1,11=9,16=1,25=1,30=1,71=1/1,2,3;
 4//1;
 5/5=2,38=5/2;
 6/7=2,8=2,9=2,10=2,28=1/1;
 7//1,2,3,16;
 1/18=20,19=15/3(2);
 2/9=110/2;
 99//99;
 2/9=110/2;
 3/5=1,6=6,7=1,11=9,16=1,25=1,30=1,71=1/1,2,3;
 4/5=5,16=3/1;
 5/5=2,38=5/2;
 7//1,2,3,16;
 1/18=20,19=15/3(-5);
 2/9=110/2;
 6/7=2,8=2,9=2,10=2,19=2,28=1/1;
 99/9=1/99;
 -----------------------------------------------------------------
 12-ethanediol Rotatable Bond Optimization on node9.bme.utexas.edu
 -----------------------------------------------------------------
 Symbolic Z-matrix:
 Charge =  0 Multiplicity = 1
 C                    -0.07432   0.76584   0.61889 
 C                     0.07432  -0.76584   0.61889 
 H                    -0.01046   2.21728  -0.63898 
 H                     0.01046  -2.21728  -0.63898 
 O                     0.07432   1.27526  -0.6725 
 O                    -0.07432  -1.27526  -0.6725 
 H                    -1.05765   1.02835   1.00485 
 H                     0.66085   1.18832   1.30078 
 H                     1.05765  -1.02835   1.00485 
 H                    -0.66085  -1.18832   1.30078 
 
 The following ModRedundant input section has been read:
 D    5    1    2    6 312.64 F                                                
 Iteration  1 RMS(Cart)=  0.02037397 RMS(Int)=  0.07450818
 Iteration  2 RMS(Cart)=  0.00789334 RMS(Int)=  0.07163371
 Iteration  3 RMS(Cart)=  0.00293991 RMS(Int)=  0.07072941
 Iteration  4 RMS(Cart)=  0.00109890 RMS(Int)=  0.07041637
 Iteration  5 RMS(Cart)=  0.00041071 RMS(Int)=  0.07030292
 Iteration  6 RMS(Cart)=  0.00015351 RMS(Int)=  0.07026101
 Iteration  7 RMS(Cart)=  0.00005737 RMS(Int)=  0.07024542
 Iteration  8 RMS(Cart)=  0.00002144 RMS(Int)=  0.07023960
 Iteration  9 RMS(Cart)=  0.00000801 RMS(Int)=  0.07023743
 Iteration 10 RMS(Cart)=  0.00000300 RMS(Int)=  0.07023662
 Iteration 11 RMS(Cart)=  0.00000112 RMS(Int)=  0.07023631
 Iteration 12 RMS(Cart)=  0.00000042 RMS(Int)=  0.07023620
 Iteration  1 RMS(Cart)=  0.02066824 RMS(Int)=  0.05577292
 Iteration  2 RMS(Cart)=  0.02092768 RMS(Int)=  0.05196735
 Iteration  3 RMS(Cart)=  0.02121688 RMS(Int)=  0.05545885
 Iteration  4 RMS(Cart)=  0.01946739 RMS(Int)=  0.06394960
 Iteration  5 RMS(Cart)=  0.01239339 RMS(Int)=  0.07108101
 Iteration  6 RMS(Cart)=  0.00785231 RMS(Int)=  0.07606381
 Iteration  7 RMS(Cart)=  0.00496028 RMS(Int)=  0.07935300
 Iteration  8 RMS(Cart)=  0.00312761 RMS(Int)=  0.08147427
 Iteration  9 RMS(Cart)=  0.00196979 RMS(Int)=  0.08282709
 Iteration 10 RMS(Cart)=  0.00123970 RMS(Int)=  0.08368472
 Iteration 11 RMS(Cart)=  0.00077987 RMS(Int)=  0.08422659
 Iteration 12 RMS(Cart)=  0.00049046 RMS(Int)=  0.08456829
 Iteration 13 RMS(Cart)=  0.00030840 RMS(Int)=  0.08478349
 Iteration 14 RMS(Cart)=  0.00019390 RMS(Int)=  0.08491893
 Iteration 15 RMS(Cart)=  0.00012190 RMS(Int)=  0.08500414
 Iteration 16 RMS(Cart)=  0.00007663 RMS(Int)=  0.08505772
 Iteration 17 RMS(Cart)=  0.00004817 RMS(Int)=  0.08509142
 Iteration 18 RMS(Cart)=  0.00003028 RMS(Int)=  0.08511260
 Iteration 19 RMS(Cart)=  0.00001904 RMS(Int)=  0.08512592
 Iteration 20 RMS(Cart)=  0.00001197 RMS(Int)=  0.08513429
 Iteration 21 RMS(Cart)=  0.00000752 RMS(Int)=  0.08513956
 Iteration 22 RMS(Cart)=  0.00000473 RMS(Int)=  0.08514287
 Iteration 23 RMS(Cart)=  0.00000297 RMS(Int)=  0.08514495
 Iteration 24 RMS(Cart)=  0.00000187 RMS(Int)=  0.08514625
 Iteration 25 RMS(Cart)=  0.00000117 RMS(Int)=  0.08514707
 Iteration 26 RMS(Cart)=  0.00000074 RMS(Int)=  0.08514759

 GradGradGradGradGradGradGradGradGradGradGradGradGradGradGradGradGradGrad
 Berny optimization.
 Initialization pass.
                           ----------------------------
                           !    Initial Parameters    !
                           ! (Angstroms and Degrees)  !
 --------------------------                            --------------------------
 ! Name  Definition              Value          Derivative Info.                !
 --------------------------------------------------------------------------------
 ! R1    R(1,2)                  1.54           estimate D2E/DX2                !
 ! R2    R(1,5)                  1.3987         estimate D2E/DX2                !
 ! R3    R(1,7)                  1.0888         estimate D2E/DX2                !
 ! R4    R(1,8)                  1.0882         estimate D2E/DX2                !
 ! R5    R(2,6)                  1.3987         estimate D2E/DX2                !
 ! R6    R(2,9)                  1.0888         estimate D2E/DX2                !
 ! R7    R(2,10)                 1.0882         estimate D2E/DX2                !
 ! R8    R(3,5)                  0.9465         estimate D2E/DX2                !
 ! R9    R(4,6)                  0.9465         estimate D2E/DX2                !
 ! A1    A(2,1,5)              110.5734         estimate D2E/DX2                !
 ! A2    A(2,1,7)              111.4526         estimate D2E/DX2                !
 ! A3    A(2,1,8)              105.8113         estimate D2E/DX2                !
 ! A4    A(5,1,7)              120.3171         estimate D2E/DX2                !
 ! A5    A(5,1,8)               99.7142         estimate D2E/DX2                !
 ! A6    A(7,1,8)              107.2909         estimate D2E/DX2                !
 ! A7    A(1,2,6)              110.5734         estimate D2E/DX2                !
 ! A8    A(1,2,9)              111.4526         estimate D2E/DX2                !
 ! A9    A(1,2,10)             105.8113         estimate D2E/DX2                !
 ! A10   A(6,2,9)              120.3171         estimate D2E/DX2                !
 ! A11   A(6,2,10)              99.7142         estimate D2E/DX2                !
 ! A12   A(9,2,10)             107.2909         estimate D2E/DX2                !
 ! A13   A(1,5,3)              108.6675         estimate D2E/DX2                !
 ! A14   A(2,6,4)              108.6675         estimate D2E/DX2                !
 ! D1    D(5,1,2,6)            -47.3598         Frozen                          !
 ! D2    D(5,1,2,9)             89.2591         estimate D2E/DX2                !
 ! D3    D(5,1,2,10)          -154.4338         estimate D2E/DX2                !
 ! D4    D(7,1,2,6)             89.2591         estimate D2E/DX2                !
 ! D5    D(7,1,2,9)           -134.1221         estimate D2E/DX2                !
 ! D6    D(7,1,2,10)           -17.8149         estimate D2E/DX2                !
 ! D7    D(8,1,2,6)           -154.4338         estimate D2E/DX2                !
 ! D8    D(8,1,2,9)            -17.8149         estimate D2E/DX2                !
 ! D9    D(8,1,2,10)            98.4923         estimate D2E/DX2                !
 ! D10   D(2,1,5,3)           -171.9609         estimate D2E/DX2                !
 ! D11   D(7,1,5,3)             55.8162         estimate D2E/DX2                !
 ! D12   D(8,1,5,3)            -60.8903         estimate D2E/DX2                !
 ! D13   D(1,2,6,4)           -171.9609         estimate D2E/DX2                !
 ! D14   D(9,2,6,4)             55.8162         estimate D2E/DX2                !
 ! D15   D(10,2,6,4)           -60.8903         estimate D2E/DX2                !
 --------------------------------------------------------------------------------
 Trust Radius=3.00D-01 FncErr=1.00D-07 GrdErr=1.00D-07
 Number of steps in this run=  48 maximum allowed number of steps= 100.
 GradGradGradGradGradGradGradGradGradGradGradGradGradGradGradGradGradGrad

                          Input orientation:                          
 ---------------------------------------------------------------------
 Center     Atomic      Atomic             Coordinates (Angstroms)
 Number     Number       Type             X           Y           Z
 ---------------------------------------------------------------------
      1          6           0       -0.173366    0.750243    0.571345
      2          6           0        0.173366   -0.750243    0.571345
      3          1           0        0.118060    2.284546   -0.551555
      4          1           0       -0.118060   -2.284546   -0.551555
      5          8           0        0.228402    1.347558   -0.627916
      6          8           0       -0.228402   -1.347558   -0.627916
      7          1           0       -1.172295    0.928114    0.966307
      8          1           0        0.532661    1.217708    1.254859
      9          1           0        1.172295   -0.928114    0.966307
     10          1           0       -0.532661   -1.217708    1.254859
 ---------------------------------------------------------------------
                    Distance matrix (angstroms):
                    1          2          3          4          5
     1  C    0.000000
     2  C    1.540027   0.000000
     3  H    1.923517   3.236342   0.000000
     4  H    3.236342   1.923517   4.575188   0.000000
     5  O    1.398724   2.417028   0.946548   3.649389   0.000000
     6  O    2.417028   1.398724   3.649389   0.946548   2.733554
     7  H    1.088803   2.187163   2.410151   3.706278   2.163199
     8  H    1.088205   2.114029   2.138497   3.994040   1.911616
     9  H    2.187163   1.088803   3.706278   2.410151   2.934478
    10  H    2.114029   1.088205   3.994040   2.138497   3.271796
                    6          7          8          9         10
     6  O    0.000000
     7  H    2.934478   0.000000
     8  H    3.271796   1.753284   0.000000
     9  H    2.163199   2.990432   2.257642   0.000000
    10  H    1.911616   2.257642   2.658226   1.753284   0.000000
 Stoichiometry    C2H6O2
 Framework group  C2[X(C2H6O2)]
 Deg. of freedom    13
 Full point group                 C2      NOp   2
 Largest Abelian subgroup         C2      NOp   2
 Largest concise Abelian subgroup C2      NOp   2
                         Standard orientation:                         
 ---------------------------------------------------------------------
 Center     Atomic      Atomic             Coordinates (Angstroms)
 Number     Number       Type             X           Y           Z
 ---------------------------------------------------------------------
      1          6           0       -0.192983    0.745439    0.566971
      2          6           0        0.192983   -0.745439    0.566971
      3          1           0        0.058105    2.286856   -0.555929
      4          1           0       -0.058105   -2.286856   -0.555929
      5          8           0        0.192983    1.353084   -0.632290
      6          8           0       -0.192983   -1.353084   -0.632290
      7          1           0       -1.196232    0.897050    0.961933
      8          1           0        0.500542    1.231259    1.250485
      9          1           0        1.196232   -0.897050    0.961933
     10          1           0       -0.500542   -1.231259    1.250485
 ---------------------------------------------------------------------
 Rotational constants (GHZ):     16.1816652      5.4573750      4.4599671
 Standard basis: 6-31G(d) (6D, 7F)
 There are    36 symmetry adapted basis functions of A   symmetry.
 There are    36 symmetry adapted basis functions of B   symmetry.
 Integral buffers will be    131072 words long.
 Raffenetti 1 integral format.
 Two-electron integral symmetry is turned on.
    72 basis functions,   136 primitive gaussians,    72 cartesian basis functions
    17 alpha electrons       17 beta electrons
       nuclear repulsion energy       133.0653995018 Hartrees.
 NAtoms=   10 NActive=   10 NUniq=    5 SFac= 3.00D+00 NAtFMM=   80 NAOKFM=F Big=F
 One-electron integrals computed using PRISM.
 NBasis=    72 RedAO= T  NBF=    36    36
 NBsUse=    72 1.00D-06 NBFU=    36    36
 Harris functional with IExCor=  205 diagonalized for initial guess.
 ExpMin= 1.61D-01 ExpMax= 5.48D+03 ExpMxC= 8.25D+02 IAcc=1 IRadAn=         1 AccDes= 0.00D+00
 HarFok:  IExCor=  205 AccDes= 0.00D+00 IRadAn=         1 IDoV= 1
 ScaDFX=  1.000000  1.000000  1.000000  1.000000
 FoFCou: FMM=F IPFlag=           0 FMFlag=      100000 FMFlg1=           0
         NFxFlg=           0 DoJE=T BraDBF=F KetDBF=T FulRan=T
         Omega=  0.000000  0.000000  1.000000  0.000000  0.000000 ICntrl=     500 IOpCl=  0
         NMat0=    1 NMatS0=    1 NMatT0=    0 NMatD0=    1 NMtDS0=    0 NMtDT0=    0
         I1Cent=           4 NGrid=           0.
 Petite list used in FoFCou.
 Initial guess orbital symmetries:
       Occupied  (B) (A) (A) (B) (A) (B) (A) (B) (A) (B) (B) (A)
                 (A) (B) (A) (B) (A)
       Virtual   (A) (B) (A) (B) (A) (B) (B) (B) (A) (A) (B) (A)
                 (B) (B) (A) (A) (B) (B) (A) (A) (A) (B) (B) (A)
                 (B) (A) (A) (B) (B) (B) (A) (A) (B) (A) (B) (A)
                 (B) (A) (B) (A) (B) (A) (B) (A) (B) (A) (B) (A)
                 (B) (A) (B) (A) (B) (A) (B)
 The electronic state of the initial guess is 1-A.
 Requested convergence on RMS density matrix=1.00D-08 within 128 cycles.
 Requested convergence on MAX density matrix=1.00D-06.
 Requested convergence on             energy=1.00D-06.
 No special actions if energy rises.
 Keep R1 ints in memory in canonical form, NReq=4309302.
 SCF Done:  E(RHF) =  -228.893783044     A.U. after   11 cycles
             Convg  =    0.9718D-08             -V/T =  2.0015

 **********************************************************************

            Population analysis using the SCF density.

 **********************************************************************

 Orbital symmetries:
       Occupied  (B) (A) (A) (B) (A) (B) (A) (B) (A) (B) (B) (A)
                 (A) (B) (A) (B) (A)
       Virtual   (A) (B) (A) (B) (B) (A) (A) (B) (B) (A) (B) (A)
                 (B) (B) (A) (A) (B) (A) (B) (A) (A) (B) (A) (B)
                 (B) (A) (A) (B) (B) (B) (A) (A) (B) (A) (B) (A)
                 (B) (A) (B) (A) (B) (A) (B) (A) (B) (A) (B) (A)
                 (B) (A) (B) (A) (B) (A) (B)
 The electronic state is 1-A.
 Alpha  occ. eigenvalues --  -20.55138 -20.55137 -11.27346 -11.27289  -1.37108
 Alpha  occ. eigenvalues --   -1.35051  -0.99584  -0.83080  -0.72097  -0.68827
 Alpha  occ. eigenvalues --   -0.63649  -0.59095  -0.58604  -0.51879  -0.47305
 Alpha  occ. eigenvalues --   -0.44163  -0.42098
 Alpha virt. eigenvalues --    0.20823   0.25186   0.26924   0.28122   0.33183
 Alpha virt. eigenvalues --    0.36448   0.39163   0.41671   0.47113   0.76527
 Alpha virt. eigenvalues --    0.78249   0.81010   0.83117   0.89799   0.95406
 Alpha virt. eigenvalues --    1.05011   1.10330   1.11997   1.12875   1.14528
 Alpha virt. eigenvalues --    1.18765   1.21778   1.25375   1.26353   1.27749
 Alpha virt. eigenvalues --    1.34545   1.36775   1.51007   1.62062   1.65636
 Alpha virt. eigenvalues --    1.73336   1.78899   1.97505   2.03226   2.05897
 Alpha virt. eigenvalues --    2.07546   2.08328   2.15823   2.34463   2.38551
 Alpha virt. eigenvalues --    2.48020   2.53945   2.65013   2.70505   2.78964
 Alpha virt. eigenvalues --    2.80492   2.84450   2.91554   3.05469   3.15926
 Alpha virt. eigenvalues --    3.26506   4.10780   4.23467   4.61781   4.86758
          Condensed to atoms (all electrons):
              1          2          3          4          5          6
     1  C    4.804764   0.350471  -0.023452   0.006052   0.205256  -0.047904
     2  C    0.350471   4.804764   0.006052  -0.023452  -0.047904   0.205256
     3  H   -0.023452   0.006052   0.325040   0.000013   0.263016  -0.000152
     4  H    0.006052  -0.023452   0.000013   0.325040  -0.000152   0.263016
     5  O    0.205256  -0.047904   0.263016  -0.000152   8.377703   0.003343
     6  O   -0.047904   0.205256  -0.000152   0.263016   0.003343   8.377703
     7  H    0.387542  -0.041042  -0.002696  -0.000163  -0.027770   0.000899
     8  H    0.414003  -0.049983  -0.005588  -0.000182  -0.057909   0.002980
     9  H   -0.041042   0.387542  -0.000163  -0.002696   0.000899  -0.027770
    10  H   -0.049983   0.414003  -0.000182  -0.005588   0.002980  -0.057909
              7          8          9         10
     1  C    0.387542   0.414003  -0.041042  -0.049983
     2  C   -0.041042  -0.049983   0.387542   0.414003
     3  H   -0.002696  -0.005588  -0.000163  -0.000182
     4  H   -0.000163  -0.000182  -0.002696  -0.005588
     5  O   -0.027770  -0.057909   0.000899   0.002980
     6  O    0.000899   0.002980  -0.027770  -0.057909
     7  H    0.578168  -0.047870   0.004779  -0.005831
     8  H   -0.047870   0.614014  -0.005831   0.003295
     9  H    0.004779  -0.005831   0.578168  -0.047870
    10  H   -0.005831   0.003295  -0.047870   0.614014
 Mulliken atomic charges:
              1
     1  C   -0.005707
     2  C   -0.005707
     3  H    0.438112
     4  H    0.438112
     5  O   -0.719462
     6  O   -0.719462
     7  H    0.153984
     8  H    0.133072
     9  H    0.153984
    10  H    0.133072
 Sum of Mulliken atomic charges =   0.00000
 Mulliken charges with hydrogens summed into heavy atoms:
              1
     1  C    0.281349
     2  C    0.281349
     5  O   -0.281349
     6  O   -0.281349
 Sum of Mulliken charges with hydrogens summed into heavy atoms =   0.00000
 Electronic spatial extent (au):  <R**2>=            304.6946
 Charge=              0.0000 electrons
 Dipole moment (field-independent basis, Debye):
    X=              0.0000    Y=              0.0000    Z=              2.7452  Tot=              2.7452
 Quadrupole moment (field-independent basis, Debye-Ang):
   XX=            -25.3216   YY=            -14.7839   ZZ=            -27.1297
   XY=             -1.5197   XZ=              0.0000   YZ=              0.0000
 Traceless Quadrupole moment (field-independent basis, Debye-Ang):
   XX=             -2.9099   YY=              7.6278   ZZ=             -4.7180
   XY=             -1.5197   XZ=              0.0000   YZ=              0.0000
 Octapole moment (field-independent basis, Debye-Ang**2):
  XXX=              0.0000  YYY=              0.0000  ZZZ=             -3.0265  XYY=              0.0000
  XXY=              0.0000  XXZ=             -0.0737  XZZ=              0.0000  YZZ=              0.0000
  YYZ=             -5.1446  XYZ=              0.5489
 Hexadecapole moment (field-independent basis, Debye-Ang**3):
 XXXX=            -41.2232 YYYY=           -133.8927 ZZZZ=            -96.0683 XXXY=             -4.0671
 XXXZ=              0.0000 YYYX=             -2.9942 YYYZ=              0.0000 ZZZX=              0.0000
 ZZZY=              0.0000 XXYY=            -45.6350 XXZZ=            -21.8388 YYZZ=            -52.3892
 XXYZ=              0.0000 YYXZ=              0.0000 ZZXY=             -1.1116
 N-N= 1.330653995018D+02 E-N=-8.059227071535D+02  KE= 2.285533792197D+02
 Symmetry A    KE= 1.154462766966D+02
 Symmetry B    KE= 1.131071025231D+02
 Calling FoFJK, ICntrl=      2127 FMM=F ISym2X=1 I1Cent= 0 IOpClX= 0 NMat=1 NMatS=1 NMatT=0.
 ***** Axes restored to original set *****
 -------------------------------------------------------------------
 Center     Atomic                   Forces (Hartrees/Bohr)
 Number     Number              X              Y              Z
 -------------------------------------------------------------------
      1        6           0.049487577    0.001769218    0.014479743
      2        6          -0.049487576   -0.001769218    0.014479744
      3        1          -0.000171284   -0.000244115   -0.001033681
      4        1           0.000171284    0.000244115   -0.001033681
      5        8          -0.021391755   -0.003377286   -0.015633475
      6        8           0.021391755    0.003377285   -0.015633475
      7        1          -0.003475389    0.002686916   -0.019158308
      8        1          -0.010572025   -0.007382996    0.021345721
      9        1           0.003475388   -0.002686917   -0.019158308
     10        1           0.010572026    0.007382996    0.021345721
 -------------------------------------------------------------------
 Cartesian Forces:  Max     0.049487577 RMS     0.017097065

 GradGradGradGradGradGradGradGradGradGradGradGradGradGradGradGradGradGrad
 Berny optimization.
 Internal  Forces:  Max     0.024833807 RMS     0.009439582
 Search for a local minimum.
 Step number   1 out of a maximum of   48
 All quantities printed in internal units (Hartrees-Bohrs-Radians)
 Mixed Optimization -- RFO/linear search
 Second derivative matrix not updated -- first step.
     Eigenvalues ---    0.01593   0.01709   0.01709   0.04381   0.05948
     Eigenvalues ---    0.06344   0.11506   0.11510   0.13745   0.14054
     Eigenvalues ---    0.16000   0.16000   0.22011   0.22014   0.28517
     Eigenvalues ---    0.34951   0.34951   0.35021   0.35021   0.45833
     Eigenvalues ---    0.45833   0.58470   0.584701000.000001000.00000
     Eigenvalues --- 1000.000001000.000001000.000001000.000001000.00000
     Eigenvalues --- 1000.000001000.000001000.000001000.000001000.00000
     Eigenvalues --- 1000.000001000.000001000.00000
 RFO step:  Lambda=-2.69876413D-02 EMin= 1.59322942D-02
 Linear search not attempted -- first point.
 Maximum step size (   0.300) exceeded in Quadratic search.
    -- Step size scaled by   0.401
 Iteration  1 RMS(Cart)=  0.03978438 RMS(Int)=  0.00123482
 Iteration  2 RMS(Cart)=  0.00123952 RMS(Int)=  0.00029934
 Iteration  3 RMS(Cart)=  0.00000067 RMS(Int)=  0.00029934
 Iteration  1 RMS(Cart)=  0.00000337 RMS(Int)=  0.00000385
 Iteration  2 RMS(Cart)=  0.00000212 RMS(Int)=  0.00000427
 Iteration  3 RMS(Cart)=  0.00000133 RMS(Int)=  0.00000490
 Iteration  4 RMS(Cart)=  0.00000084 RMS(Int)=  0.00000538
 ClnCor:  largest displacement from symmetrization is 3.49D-11 for atom     9.
 Variable       Old X    -DE/DX   Delta X   Delta X   Delta X     New X
                                 (Linear)    (Quad)   (Total)
    R1        2.91023  -0.00950   0.00000  -0.01220  -0.01220   2.89803
    R2        2.64321   0.00655   0.00000   0.00541   0.00541   2.64861
    R3        2.05754  -0.00332   0.00000  -0.00353  -0.00353   2.05400
    R4        2.05641   0.00338   0.00000   0.00359   0.00359   2.06000
    R5        2.64321   0.00655   0.00000   0.00541   0.00541   2.64861
    R6        2.05754  -0.00332   0.00000  -0.00353  -0.00353   2.05400
    R7        2.05641   0.00338   0.00000   0.00359   0.00359   2.06000
    R8        1.78872  -0.00031   0.00000  -0.00020  -0.00020   1.78852
    R9        1.78872  -0.00031   0.00000  -0.00020  -0.00020   1.78852
    A1        1.92987  -0.00366   0.00000  -0.00746  -0.00797   1.92190
    A2        1.94522   0.00487   0.00000   0.00039  -0.00027   1.94495
    A3        1.84676  -0.00347   0.00000  -0.00163  -0.00177   1.84498
    A4        2.09993  -0.01416   0.00000  -0.03763  -0.03792   2.06201
    A5        1.74034   0.02096   0.00000   0.05879   0.05896   1.79930
    A6        1.87258  -0.00170   0.00000  -0.00133  -0.00098   1.87160
    A7        1.92987  -0.00366   0.00000  -0.00746  -0.00797   1.92190
    A8        1.94522   0.00487   0.00000   0.00039  -0.00027   1.94495
    A9        1.84676  -0.00347   0.00000  -0.00163  -0.00177   1.84498
   A10        2.09993  -0.01416   0.00000  -0.03763  -0.03792   2.06201
   A11        1.74034   0.02096   0.00000   0.05879   0.05896   1.79930
   A12        1.87258  -0.00170   0.00000  -0.00133  -0.00098   1.87160
   A13        1.89661   0.00157   0.00000   0.00336   0.00336   1.89997
   A14        1.89661   0.00157   0.00000   0.00336   0.00336   1.89997
    D1       -0.82658   0.02483   0.00000   0.00000   0.00000  -0.82659
    D2        1.55786   0.00555   0.00000  -0.06113  -0.06112   1.49674
    D3       -2.69538   0.00401   0.00000  -0.06345  -0.06344  -2.75882
    D4        1.55786   0.00555   0.00000  -0.06113  -0.06112   1.49674
    D5       -2.34087  -0.01373   0.00000  -0.12226  -0.12224  -2.46311
    D6       -0.31093  -0.01527   0.00000  -0.12458  -0.12456  -0.43549
    D7       -2.69538   0.00401   0.00000  -0.06345  -0.06344  -2.75882
    D8       -0.31093  -0.01527   0.00000  -0.12458  -0.12456  -0.43549
    D9        1.71901  -0.01681   0.00000  -0.12689  -0.12688   1.59213
   D10       -3.00128  -0.00564   0.00000  -0.02617  -0.02587  -3.02716
   D11        0.97418   0.00561   0.00000   0.02070   0.01999   0.99417
   D12       -1.06274  -0.00090   0.00000  -0.00291  -0.00249  -1.06523
   D13       -3.00128  -0.00564   0.00000  -0.02617  -0.02587  -3.02716
   D14        0.97418   0.00561   0.00000   0.02070   0.01999   0.99417
   D15       -1.06274  -0.00090   0.00000  -0.00291  -0.00249  -1.06523
         Item               Value     Threshold  Converged?
 Maximum Force            0.015896     0.000450     NO 
 RMS     Force            0.006829     0.000300     NO 
 Maximum Displacement     0.109847     0.001800     NO 
 RMS     Displacement     0.039893     0.001200     NO 
 Predicted change in Energy=-9.851128D-03
 GradGradGradGradGradGradGradGradGradGradGradGradGradGradGradGradGradGrad

                          Input orientation:                          
 ---------------------------------------------------------------------
 Center     Atomic      Atomic             Coordinates (Angstroms)
 Number     Number       Type             X           Y           Z
 ---------------------------------------------------------------------
      1          6           0       -0.167052    0.748368    0.578919
      2          6           0        0.167052   -0.748368    0.578919
      3          1           0        0.122924    2.270878   -0.568113
      4          1           0       -0.122924   -2.270878   -0.568113
      5          8           0        0.243807    1.333996   -0.626351
      6          8           0       -0.243807   -1.333996   -0.626351
      7          1           0       -1.184756    0.928227    0.915597
      8          1           0        0.500529    1.199814    1.312988
      9          1           0        1.184756   -0.928227    0.915597
     10          1           0       -0.500529   -1.199814    1.312988
 ---------------------------------------------------------------------
                    Distance matrix (angstroms):
                    1          2          3          4          5
     1  C    0.000000
     2  C    1.533573   0.000000
     3  H    1.928161   3.230090   0.000000
     4  H    3.230090   1.928161   4.548405   0.000000
     5  O    1.401585   2.407241   0.946442   3.623948   0.000000
     6  O    2.407241   1.401585   3.623948   0.946442   2.712185
     7  H    1.086932   2.179841   2.390426   3.682819   2.140804
     8  H    1.090103   2.108430   2.197341   3.996616   1.960853
     9  H    2.179841   1.086932   3.682819   2.390426   2.894933
    10  H    2.108430   1.090103   3.996616   2.197341   3.276471
                    6          7          8          9         10
     6  O    0.000000
     7  H    2.894933   0.000000
     8  H    3.276471   1.752674   0.000000
     9  H    2.140804   3.010150   2.270383   0.000000
    10  H    1.960853   2.270383   2.600063   1.752674   0.000000
 Stoichiometry    C2H6O2
 Framework group  C2[X(C2H6O2)]
 Deg. of freedom    13
 Full point group                 C2      NOp   2
 Largest Abelian subgroup         C2      NOp   2
 Largest concise Abelian subgroup C2      NOp   2
                         Standard orientation:                         
 ---------------------------------------------------------------------
 Center     Atomic      Atomic             Coordinates (Angstroms)
 Number     Number       Type             X           Y           Z
 ---------------------------------------------------------------------
      1          6           0       -0.194505    0.741707    0.571673
      2          6           0        0.194505   -0.741707    0.571673
      3          1           0        0.039194    2.273865   -0.575359
      4          1           0       -0.039194   -2.273865   -0.575359
      5          8           0        0.194505    1.342071   -0.633597
      6          8           0       -0.194505   -1.342071   -0.633597
      7          1           0       -1.218143    0.883957    0.908351
      8          1           0        0.455995    1.217436    1.305742
      9          1           0        1.218143   -0.883957    0.908351
     10          1           0       -0.455995   -1.217436    1.305742
 ---------------------------------------------------------------------
 Rotational constants (GHZ):     15.9860587      5.5330959      4.5006855
 Standard basis: 6-31G(d) (6D, 7F)
 There are    36 symmetry adapted basis functions of A   symmetry.
 There are    36 symmetry adapted basis functions of B   symmetry.
 Integral buffers will be    131072 words long.
 Raffenetti 1 integral format.
 Two-electron integral symmetry is turned on.
    72 basis functions,   136 primitive gaussians,    72 cartesian basis functions
    17 alpha electrons       17 beta electrons
       nuclear repulsion energy       133.2161593097 Hartrees.
 NAtoms=   10 NActive=   10 NUniq=    5 SFac= 3.00D+00 NAtFMM=   80 NAOKFM=F Big=F
 One-electron integrals computed using PRISM.
 NBasis=    72 RedAO= T  NBF=    36    36
 NBsUse=    72 1.00D-06 NBFU=    36    36
 Initial guess read from the read-write file.
 B after Tr=     0.000000    0.000000    0.000000
         Rot=    1.000000    0.000000    0.000000    0.000000 Ang=   0.00 deg.
 Initial guess orbital symmetries:
       Occupied  (B) (A) (A) (B) (A) (B) (A) (B) (A) (B) (B) (A)
                 (A) (B) (A) (B) (A)
       Virtual   (A) (B) (A) (B) (B) (A) (A) (B) (B) (A) (B) (A)
                 (B) (B) (A) (A) (B) (A) (B) (A) (A) (B) (A) (B)
                 (B) (A) (A) (B) (B) (B) (A) (A) (B) (A) (B) (A)
                 (B) (A) (B) (A) (B) (A) (B) (A) (B) (A) (B) (A)
                 (B) (A) (B) (A) (B) (A) (B)
 Harris functional with IExCor=  205 diagonalized for initial guess.
 ExpMin= 1.61D-01 ExpMax= 5.48D+03 ExpMxC= 8.25D+02 IAcc=1 IRadAn=         1 AccDes= 0.00D+00
 HarFok:  IExCor=  205 AccDes= 0.00D+00 IRadAn=         1 IDoV= 1
 ScaDFX=  1.000000  1.000000  1.000000  1.000000
 FoFCou: FMM=F IPFlag=           0 FMFlag=      100000 FMFlg1=           0
         NFxFlg=           0 DoJE=T BraDBF=F KetDBF=T FulRan=T
         Omega=  0.000000  0.000000  1.000000  0.000000  0.000000 ICntrl=     500 IOpCl=  0
         NMat0=    1 NMatS0=    1 NMatT0=    0 NMatD0=    1 NMtDS0=    0 NMtDT0=    0
         I1Cent=           4 NGrid=           0.
 Petite list used in FoFCou.
 Requested convergence on RMS density matrix=1.00D-08 within 128 cycles.
 Requested convergence on MAX density matrix=1.00D-06.
 Requested convergence on             energy=1.00D-06.
 No special actions if energy rises.
 Keep R1 ints in memory in canonical form, NReq=4309302.
 SCF Done:  E(RHF) =  -228.903156626     A.U. after   10 cycles
             Convg  =    0.8007D-08             -V/T =  2.0016
 Calling FoFJK, ICntrl=      2127 FMM=F ISym2X=1 I1Cent= 0 IOpClX= 0 NMat=1 NMatS=1 NMatT=0.
 ***** Axes restored to original set *****
 -------------------------------------------------------------------
 Center     Atomic                   Forces (Hartrees/Bohr)
 Number     Number              X              Y              Z
 -------------------------------------------------------------------
      1        6           0.040341343    0.001939915    0.009535289
      2        6          -0.040341343   -0.001939914    0.009535290
      3        1          -0.000228264   -0.000025286   -0.000649469
      4        1           0.000228264    0.000025286   -0.000649469
      5        8          -0.015720626   -0.003281702   -0.006843547
      6        8           0.015720626    0.003281702   -0.006843548
      7        1          -0.002971722    0.001603262   -0.015446830
      8        1          -0.009290583   -0.004351561    0.013404557
      9        1           0.002971722   -0.001603263   -0.015446830
     10        1           0.009290583    0.004351562    0.013404557
 -------------------------------------------------------------------
 Cartesian Forces:  Max     0.040341343 RMS     0.013069722

 GradGradGradGradGradGradGradGradGradGradGradGradGradGradGradGradGradGrad
 Berny optimization.
 Using GEDIIS/GDIIS optimizer.
 Internal  Forces:  Max     0.017143345 RMS     0.006459139
 Search for a local minimum.
 Step number   2 out of a maximum of   48
 All quantities printed in internal units (Hartrees-Bohrs-Radians)
 Mixed Optimization -- RFO/linear search
 Update second derivatives using D2CorX and points    1    2
 DE= -9.37D-03 DEPred=-9.85D-03 R= 9.52D-01
 SS=  1.41D+00  RLast= 3.00D-01 DXNew= 5.0454D-01 8.9995D-01
 Trust test= 9.52D-01 RLast= 3.00D-01 DXMaxT set to 5.05D-01
 Use linear search instead of GDIIS.
 Linear search step of   0.592 exceeds DXMaxT=   0.505 but not scaled.
 Quartic linear search produced a step of  2.00000.
 Iteration  1 RMS(Cart)=  0.07045847 RMS(Int)=  0.01430988
 Iteration  2 RMS(Cart)=  0.01111482 RMS(Int)=  0.00175247
 Iteration  3 RMS(Cart)=  0.00010848 RMS(Int)=  0.00174898
 Iteration  4 RMS(Cart)=  0.00000002 RMS(Int)=  0.00174898
 Iteration  1 RMS(Cart)=  0.00006275 RMS(Int)=  0.00007034
 Iteration  2 RMS(Cart)=  0.00003953 RMS(Int)=  0.00007810
 Iteration  3 RMS(Cart)=  0.00002491 RMS(Int)=  0.00008950
 Iteration  4 RMS(Cart)=  0.00001569 RMS(Int)=  0.00009841
 Iteration  5 RMS(Cart)=  0.00000989 RMS(Int)=  0.00010453
 Iteration  6 RMS(Cart)=  0.00000623 RMS(Int)=  0.00010855
 Iteration  7 RMS(Cart)=  0.00000392 RMS(Int)=  0.00011114
 Iteration  8 RMS(Cart)=  0.00000247 RMS(Int)=  0.00011279
 Iteration  9 RMS(Cart)=  0.00000156 RMS(Int)=  0.00011384
 Iteration 10 RMS(Cart)=  0.00000098 RMS(Int)=  0.00011450
 ClnCor:  largest displacement from symmetrization is 2.96D-10 for atom     4.
 Variable       Old X    -DE/DX   Delta X   Delta X   Delta X     New X
                                 (Linear)    (Quad)   (Total)
    R1        2.89803  -0.00666  -0.02439   0.00000  -0.02439   2.87364
    R2        2.64861   0.00039   0.01081   0.00000   0.01081   2.65942
    R3        2.05400  -0.00174  -0.00707   0.00000  -0.00707   2.04694
    R4        2.06000   0.00153   0.00717   0.00000   0.00717   2.06717
    R5        2.64861   0.00039   0.01081   0.00000   0.01081   2.65942
    R6        2.05400  -0.00174  -0.00707   0.00000  -0.00707   2.04694
    R7        2.06000   0.00153   0.00717   0.00000   0.00717   2.06717
    R8        1.78852  -0.00004  -0.00040   0.00000  -0.00040   1.78812
    R9        1.78852  -0.00004  -0.00040   0.00000  -0.00040   1.78812
    A1        1.92190  -0.00117  -0.01594   0.00000  -0.01885   1.90305
    A2        1.94495   0.00212  -0.00053   0.00000  -0.00447   1.94048
    A3        1.84498  -0.00074  -0.00354   0.00000  -0.00445   1.84054
    A4        2.06201  -0.01089  -0.07585   0.00000  -0.07773   1.98427
    A5        1.79930   0.01329   0.11791   0.00000   0.11894   1.91824
    A6        1.87160  -0.00071  -0.00196   0.00000  -0.00002   1.87158
    A7        1.92190  -0.00117  -0.01594   0.00000  -0.01885   1.90305
    A8        1.94495   0.00212  -0.00053   0.00000  -0.00447   1.94048
    A9        1.84498  -0.00074  -0.00354   0.00000  -0.00445   1.84054
   A10        2.06201  -0.01089  -0.07585   0.00000  -0.07773   1.98427
   A11        1.79930   0.01329   0.11791   0.00000   0.11894   1.91824
   A12        1.87160  -0.00071  -0.00196   0.00000  -0.00002   1.87158
   A13        1.89997   0.00093   0.00672   0.00000   0.00672   1.90668
   A14        1.89997   0.00093   0.00672   0.00000   0.00672   1.90668
    D1       -0.82659   0.01714  -0.00001   0.00000   0.00000  -0.82659
    D2        1.49674   0.00291  -0.12224   0.00000  -0.12205   1.37470
    D3       -2.75882   0.00271  -0.12689   0.00000  -0.12684  -2.88566
    D4        1.49674   0.00291  -0.12224   0.00000  -0.12205   1.37470
    D5       -2.46311  -0.01133  -0.24448   0.00000  -0.24409  -2.70720
    D6       -0.43549  -0.01152  -0.24912   0.00000  -0.24888  -0.68437
    D7       -2.75882   0.00271  -0.12689   0.00000  -0.12684  -2.88566
    D8       -0.43549  -0.01152  -0.24912   0.00000  -0.24888  -0.68437
    D9        1.59213  -0.01172  -0.25377   0.00000  -0.25368   1.33845
   D10       -3.02716  -0.00469  -0.05175   0.00000  -0.05012  -3.07728
   D11        0.99417   0.00338   0.03998   0.00000   0.03591   1.03007
   D12       -1.06523   0.00054  -0.00499   0.00000  -0.00255  -1.06778
   D13       -3.02716  -0.00469  -0.05175   0.00000  -0.05012  -3.07728
   D14        0.99417   0.00338   0.03998   0.00000   0.03591   1.03007
   D15       -1.06523   0.00054  -0.00499   0.00000  -0.00255  -1.06778
         Item               Value     Threshold  Converged?
 Maximum Force            0.011081     0.000450     NO 
 RMS     Force            0.004632     0.000300     NO 
 Maximum Displacement     0.209926     0.001800     NO 
 RMS     Displacement     0.080459     0.001200     NO 
 Predicted change in Energy=-1.018553D-02
 GradGradGradGradGradGradGradGradGradGradGradGradGradGradGradGradGradGrad

                          Input orientation:                          
 ---------------------------------------------------------------------
 Center     Atomic      Atomic             Coordinates (Angstroms)
 Number     Number       Type             X           Y           Z
 ---------------------------------------------------------------------
      1          6           0       -0.155073    0.744351    0.597154
      2          6           0        0.155073   -0.744351    0.597154
      3          1           0        0.134817    2.238382   -0.601817
      4          1           0       -0.134817   -2.238382   -0.601817
      5          8           0        0.274380    1.302701   -0.621176
      6          8           0       -0.274380   -1.302701   -0.621176
      7          1           0       -1.200448    0.926347    0.814804
      8          1           0        0.425817    1.163134    1.424076
      9          1           0        1.200448   -0.926347    0.814804
     10          1           0       -0.425817   -1.163134    1.424076
 ---------------------------------------------------------------------
                    Distance matrix (angstroms):
                    1          2          3          4          5
     1  C    0.000000
     2  C    1.520666   0.000000
     3  H    1.937446   3.214753   0.000000
     4  H    3.214753   1.937446   4.484877   0.000000
     5  O    1.407307   2.385159   0.946231   3.564700   0.000000
     6  O    2.385159   1.407307   3.564700   0.946231   2.662565
     7  H    1.083192   2.162416   2.347591   3.627382   2.092558
     8  H    1.093898   2.096569   2.311943   3.998608   2.055594
     9  H    2.162416   1.083192   3.627382   2.347591   2.808611
    10  H    2.096569   1.093898   3.998608   2.311943   3.279279
                    6          7          8          9         10
     6  O    0.000000
     7  H    2.808611   0.000000
     8  H    3.279279   1.752718   0.000000
     9  H    2.092558   3.032619   2.310238   0.000000
    10  H    2.055594   2.310238   2.477258   1.752718   0.000000
 Stoichiometry    C2H6O2
 Framework group  C2[X(C2H6O2)]
 Deg. of freedom    13
 Full point group                 C2      NOp   2
 Largest Abelian subgroup         C2      NOp   2
 Largest concise Abelian subgroup C2      NOp   2
                         Standard orientation:                         
 ---------------------------------------------------------------------
 Center     Atomic      Atomic             Coordinates (Angstroms)
 Number     Number       Type             X           Y           Z
 ---------------------------------------------------------------------
      1          6           0       -0.198119    0.734067    0.582414
      2          6           0        0.198119   -0.734067    0.582414
      3          1           0        0.004351    2.242434   -0.616556
      4          1           0       -0.004351   -2.242434   -0.616556
      5          8           0        0.198119    1.316458   -0.635916
      6          8           0       -0.198119   -1.316458   -0.635916
      7          1           0       -1.252313    0.854931    0.800064
      8          1           0        0.357420    1.185939    1.409336
      9          1           0        1.252313   -0.854931    0.800064
     10          1           0       -0.357420   -1.185939    1.409336
 ---------------------------------------------------------------------
 Rotational constants (GHZ):     15.5843757      5.7148172      4.5960956
 Standard basis: 6-31G(d) (6D, 7F)
 There are    36 symmetry adapted basis functions of A   symmetry.
 There are    36 symmetry adapted basis functions of B   symmetry.
 Integral buffers will be    131072 words long.
 Raffenetti 1 integral format.
 Two-electron integral symmetry is turned on.
    72 basis functions,   136 primitive gaussians,    72 cartesian basis functions
    17 alpha electrons       17 beta electrons
       nuclear repulsion energy       133.6479295605 Hartrees.
 NAtoms=   10 NActive=   10 NUniq=    5 SFac= 3.00D+00 NAtFMM=   80 NAOKFM=F Big=F
 One-electron integrals computed using PRISM.
 NBasis=    72 RedAO= T  NBF=    36    36
 NBsUse=    72 1.00D-06 NBFU=    36    36
 Initial guess read from the read-write file.
 B after Tr=     0.000000    0.000000    0.000000
         Rot=    1.000000    0.000000    0.000000    0.000000 Ang=   0.00 deg.
 Initial guess orbital symmetries:
       Occupied  (B) (A) (A) (B) (A) (B) (A) (B) (A) (B) (B) (A)
                 (A) (B) (A) (B) (A)
       Virtual   (A) (B) (A) (B) (B) (A) (A) (B) (B) (A) (B) (A)
                 (B) (B) (A) (A) (B) (A) (B) (A) (A) (B) (A) (B)
                 (B) (A) (A) (B) (B) (B) (A) (A) (B) (A) (B) (A)
                 (B) (A) (B) (A) (B) (A) (B) (A) (B) (A) (B) (A)
                 (B) (A) (B) (A) (B) (A) (B)
 Harris functional with IExCor=  205 diagonalized for initial guess.
 ExpMin= 1.61D-01 ExpMax= 5.48D+03 ExpMxC= 8.25D+02 IAcc=1 IRadAn=         1 AccDes= 0.00D+00
 HarFok:  IExCor=  205 AccDes= 0.00D+00 IRadAn=         1 IDoV= 1
 ScaDFX=  1.000000  1.000000  1.000000  1.000000
 FoFCou: FMM=F IPFlag=           0 FMFlag=      100000 FMFlg1=           0
         NFxFlg=           0 DoJE=T BraDBF=F KetDBF=T FulRan=T
         Omega=  0.000000  0.000000  1.000000  0.000000  0.000000 ICntrl=     500 IOpCl=  0
         NMat0=    1 NMatS0=    1 NMatT0=    0 NMatD0=    1 NMtDS0=    0 NMtDT0=    0
         I1Cent=           4 NGrid=           0.
 Petite list used in FoFCou.
 Requested convergence on RMS density matrix=1.00D-08 within 128 cycles.
 Requested convergence on MAX density matrix=1.00D-06.
 Requested convergence on             energy=1.00D-06.
 No special actions if energy rises.
 Keep R1 ints in memory in canonical form, NReq=4309302.
 SCF Done:  E(RHF) =  -228.913428417     A.U. after   11 cycles
             Convg  =    0.4622D-08             -V/T =  2.0017
 Calling FoFJK, ICntrl=      2127 FMM=F ISym2X=1 I1Cent= 0 IOpClX= 0 NMat=1 NMatS=1 NMatT=0.
 ***** Axes restored to original set *****
 -------------------------------------------------------------------
 Center     Atomic                   Forces (Hartrees/Bohr)
 Number     Number              X              Y              Z
 -------------------------------------------------------------------
      1        6           0.022362108    0.000855140   -0.000248267
      2        6          -0.022362108   -0.000855140   -0.000248266
      3        1          -0.000362704    0.000440667   -0.000032497
      4        1           0.000362704   -0.000440667   -0.000032497
      5        8          -0.004819779   -0.001057230    0.007778579
      6        8           0.004819780    0.001057231    0.007778579
      7        1          -0.003282939   -0.000426090   -0.007358326
      8        1          -0.004742187    0.001994975   -0.000139490
      9        1           0.003282939    0.000426090   -0.007358326
     10        1           0.004742187   -0.001994975   -0.000139490
 -------------------------------------------------------------------
 Cartesian Forces:  Max     0.022362108 RMS     0.006721259

 GradGradGradGradGradGradGradGradGradGradGradGradGradGradGradGradGradGrad
 Berny optimization.
 Using GEDIIS/GDIIS optimizer.
 Internal  Forces:  Max     0.008532024 RMS     0.003353842
 Search for a local minimum.
 Step number   3 out of a maximum of   48
 All quantities printed in internal units (Hartrees-Bohrs-Radians)
 Mixed Optimization -- RFO/linear search
 Update second derivatives using D2CorX and points    2    3
 Use linear search instead of GDIIS.
     Eigenvalues ---    0.01708   0.01709   0.02201   0.05026   0.06170
     Eigenvalues ---    0.06188   0.11135   0.11337   0.13764   0.13795
     Eigenvalues ---    0.15991   0.16000   0.21995   0.22576   0.28281
     Eigenvalues ---    0.34951   0.34974   0.35021   0.35089   0.45833
     Eigenvalues ---    0.46704   0.58470   0.584741000.000001000.00000
     Eigenvalues --- 1000.000001000.000001000.000001000.000001000.00000
     Eigenvalues --- 1000.000001000.000001000.000001000.000001000.00000
     Eigenvalues --- 1000.000001000.000001000.00000
 RFO step:  Lambda=-4.52018604D-03 EMin= 1.70839546D-02
 Quartic linear search produced a step of  0.42083.
 Iteration  1 RMS(Cart)=  0.05729851 RMS(Int)=  0.00469650
 Iteration  2 RMS(Cart)=  0.00465478 RMS(Int)=  0.00131774
 Iteration  3 RMS(Cart)=  0.00001977 RMS(Int)=  0.00131759
 Iteration  4 RMS(Cart)=  0.00000002 RMS(Int)=  0.00131759
 Iteration  1 RMS(Cart)=  0.00006984 RMS(Int)=  0.00008180
 Iteration  2 RMS(Cart)=  0.00004386 RMS(Int)=  0.00009086
 Iteration  3 RMS(Cart)=  0.00002754 RMS(Int)=  0.00010409
 Iteration  4 RMS(Cart)=  0.00001729 RMS(Int)=  0.00011439
 Iteration  5 RMS(Cart)=  0.00001086 RMS(Int)=  0.00012143
 Iteration  6 RMS(Cart)=  0.00000682 RMS(Int)=  0.00012605
 Iteration  7 RMS(Cart)=  0.00000428 RMS(Int)=  0.00012901
 Iteration  8 RMS(Cart)=  0.00000269 RMS(Int)=  0.00013089
 Iteration  9 RMS(Cart)=  0.00000169 RMS(Int)=  0.00013208
 Iteration 10 RMS(Cart)=  0.00000106 RMS(Int)=  0.00013283
 Iteration 11 RMS(Cart)=  0.00000067 RMS(Int)=  0.00013330
 ClnCor:  largest displacement from symmetrization is 1.70D-10 for atom     9.
 Variable       Old X    -DE/DX   Delta X   Delta X   Delta X     New X
                                 (Linear)    (Quad)   (Total)
    R1        2.87364  -0.00010  -0.01026   0.00881  -0.00146   2.87218
    R2        2.65942  -0.00853   0.00455  -0.02594  -0.02139   2.63803
    R3        2.04694   0.00162  -0.00297   0.00831   0.00534   2.05227
    R4        2.06717  -0.00186   0.00302  -0.00902  -0.00600   2.06116
    R5        2.65942  -0.00853   0.00455  -0.02594  -0.02139   2.63803
    R6        2.04694   0.00162  -0.00297   0.00831   0.00534   2.05227
    R7        2.06717  -0.00186   0.00302  -0.00902  -0.00600   2.06116
    R8        1.78812   0.00049  -0.00017   0.00117   0.00101   1.78912
    R9        1.78812   0.00049  -0.00017   0.00117   0.00101   1.78912
    A1        1.90305   0.00498  -0.00793   0.02987   0.01903   1.92208
    A2        1.94048  -0.00302  -0.00188  -0.03696  -0.04062   1.89986
    A3        1.84054   0.00390  -0.00187   0.06825   0.06474   1.90528
    A4        1.98427  -0.00432  -0.03271  -0.04355  -0.07749   1.90679
    A5        1.91824  -0.00168   0.05005  -0.02349   0.02407   1.94231
    A6        1.87158   0.00063  -0.00001   0.01362   0.01515   1.88673
    A7        1.90305   0.00498  -0.00793   0.02987   0.01903   1.92208
    A8        1.94048  -0.00302  -0.00188  -0.03696  -0.04062   1.89986
    A9        1.84054   0.00390  -0.00187   0.06825   0.06474   1.90528
   A10        1.98427  -0.00432  -0.03271  -0.04355  -0.07749   1.90679
   A11        1.91824  -0.00168   0.05005  -0.02349   0.02407   1.94231
   A12        1.87158   0.00063  -0.00001   0.01362   0.01515   1.88673
   A13        1.90668  -0.00013   0.00283  -0.00338  -0.00056   1.90613
   A14        1.90668  -0.00013   0.00283  -0.00338  -0.00056   1.90613
    D1       -0.82659   0.00251   0.00000   0.00000   0.00001  -0.82658
    D2        1.37470  -0.00155  -0.05136  -0.06041  -0.11126   1.26344
    D3       -2.88566  -0.00010  -0.05338  -0.02407  -0.07823  -2.96389
    D4        1.37470  -0.00155  -0.05136  -0.06041  -0.11126   1.26344
    D5       -2.70720  -0.00560  -0.10272  -0.12081  -0.22253  -2.92973
    D6       -0.68437  -0.00415  -0.10474  -0.08447  -0.18950  -0.87387
    D7       -2.88566  -0.00010  -0.05338  -0.02407  -0.07823  -2.96389
    D8       -0.68437  -0.00415  -0.10474  -0.08447  -0.18950  -0.87387
    D9        1.33845  -0.00270  -0.10675  -0.04813  -0.15646   1.18199
   D10       -3.07728  -0.00342  -0.02109  -0.05328  -0.07345   3.13246
   D11        1.03007  -0.00019   0.01511   0.00354   0.01657   1.04665
   D12       -1.06778   0.00312  -0.00107   0.03230   0.03238  -1.03539
   D13       -3.07728  -0.00342  -0.02109  -0.05328  -0.07345   3.13246
   D14        1.03007  -0.00019   0.01511   0.00354   0.01657   1.04665
   D15       -1.06778   0.00312  -0.00107   0.03230   0.03238  -1.03539
         Item               Value     Threshold  Converged?
 Maximum Force            0.008532     0.000450     NO 
 RMS     Force            0.003331     0.000300     NO 
 Maximum Displacement     0.185806     0.001800     NO 
 RMS     Displacement     0.058638     0.001200     NO 
 Predicted change in Energy=-3.389818D-03
 GradGradGradGradGradGradGradGradGradGradGradGradGradGradGradGradGradGrad

                          Input orientation:                          
 ---------------------------------------------------------------------
 Center     Atomic      Atomic             Coordinates (Angstroms)
 Number     Number       Type             X           Y           Z
 ---------------------------------------------------------------------
      1          6           0       -0.128004    0.749089    0.607812
      2          6           0        0.128004   -0.749089    0.607812
      3          1           0        0.137196    2.242065   -0.582022
      4          1           0       -0.137196   -2.242065   -0.582022
      5          8           0        0.309986    1.311264   -0.592565
      6          8           0       -0.309986   -1.311264   -0.592565
      7          1           0       -1.194502    0.922888    0.716479
      8          1           0        0.377536    1.198733    1.463336
      9          1           0        1.194502   -0.922888    0.716479
     10          1           0       -0.377536   -1.198733    1.463336
 ---------------------------------------------------------------------
                    Distance matrix (angstroms):
                    1          2          3          4          5
     1  C    0.000000
     2  C    1.519895   0.000000
     3  H    1.927437   3.219130   0.000000
     4  H    3.219130   1.927437   4.492518   0.000000
     5  O    1.395987   2.391459   0.946763   3.581372   0.000000
     6  O    2.391459   1.395987   3.581372   0.946763   2.694812
     7  H    1.086017   2.134558   2.280297   3.580633   2.031728
     8  H    1.090720   2.142008   2.308634   4.035781   2.060086
     9  H    2.134558   1.086017   3.580633   2.280297   2.736311
    10  H    2.142008   1.090720   4.035781   2.308634   3.316549
                    6          7          8          9         10
     6  O    0.000000
     7  H    2.736311   0.000000
     8  H    3.316549   1.762154   0.000000
     9  H    2.031728   3.018978   2.393011   0.000000
    10  H    2.060086   2.393011   2.513559   1.762154   0.000000
 Stoichiometry    C2H6O2
 Framework group  C2[X(C2H6O2)]
 Deg. of freedom    13
 Full point group                 C2      NOp   2
 Largest Abelian subgroup         C2      NOp   2
 Largest concise Abelian subgroup C2      NOp   2
                         Standard orientation:                         
 ---------------------------------------------------------------------
 Center     Atomic      Atomic             Coordinates (Angstroms)
 Number     Number       Type             X           Y           Z
 ---------------------------------------------------------------------
      1          6           0       -0.193415    0.734922    0.578156
      2          6           0        0.193415   -0.734922    0.578156
      3          1           0       -0.060601    2.245441   -0.611677
      4          1           0        0.060601   -2.245441   -0.611677
      5          8           0        0.193415    1.333452   -0.622221
      6          8           0       -0.193415   -1.333452   -0.622221
      7          1           0       -1.271068    0.814213    0.686824
      8          1           0        0.270603    1.227301    1.433680
      9          1           0        1.271068   -0.814213    0.686824
     10          1           0       -0.270603   -1.227301    1.433680
 ---------------------------------------------------------------------
 Rotational constants (GHZ):     16.0477357      5.6225109      4.5687709
 Standard basis: 6-31G(d) (6D, 7F)
 There are    36 symmetry adapted basis functions of A   symmetry.
 There are    36 symmetry adapted basis functions of B   symmetry.
 Integral buffers will be    131072 words long.
 Raffenetti 1 integral format.
 Two-electron integral symmetry is turned on.
    72 basis functions,   136 primitive gaussians,    72 cartesian basis functions
    17 alpha electrons       17 beta electrons
       nuclear repulsion energy       133.8692118247 Hartrees.
 NAtoms=   10 NActive=   10 NUniq=    5 SFac= 3.00D+00 NAtFMM=   80 NAOKFM=F Big=F
 One-electron integrals computed using PRISM.
 NBasis=    72 RedAO= T  NBF=    36    36
 NBsUse=    72 1.00D-06 NBFU=    36    36
 Initial guess read from the read-write file.
 B after Tr=     0.000000    0.000000    0.000000
         Rot=    1.000000    0.000000    0.000000    0.000000 Ang=   0.00 deg.
 Initial guess orbital symmetries:
       Occupied  (B) (A) (A) (B) (A) (B) (A) (B) (A) (B) (B) (A)
                 (A) (B) (A) (B) (A)
       Virtual   (A) (B) (A) (B) (B) (A) (A) (B) (B) (A) (B) (A)
                 (B) (B) (A) (A) (B) (B) (A) (A) (A) (B) (A) (B)
                 (B) (A) (A) (B) (B) (B) (A) (A) (B) (A) (B) (A)
                 (B) (A) (B) (A) (B) (A) (B) (A) (B) (A) (B) (A)
                 (B) (A) (B) (A) (B) (A) (B)
 Harris functional with IExCor=  205 diagonalized for initial guess.
 ExpMin= 1.61D-01 ExpMax= 5.48D+03 ExpMxC= 8.25D+02 IAcc=1 IRadAn=         1 AccDes= 0.00D+00
 HarFok:  IExCor=  205 AccDes= 0.00D+00 IRadAn=         1 IDoV= 1
 ScaDFX=  1.000000  1.000000  1.000000  1.000000
 FoFCou: FMM=F IPFlag=           0 FMFlag=      100000 FMFlg1=           0
         NFxFlg=           0 DoJE=T BraDBF=F KetDBF=T FulRan=T
         Omega=  0.000000  0.000000  1.000000  0.000000  0.000000 ICntrl=     500 IOpCl=  0
         NMat0=    1 NMatS0=    1 NMatT0=    0 NMatD0=    1 NMtDS0=    0 NMtDT0=    0
         I1Cent=           4 NGrid=           0.
 Petite list used in FoFCou.
 Requested convergence on RMS density matrix=1.00D-08 within 128 cycles.
 Requested convergence on MAX density matrix=1.00D-06.
 Requested convergence on             energy=1.00D-06.
 No special actions if energy rises.
 Keep R1 ints in memory in canonical form, NReq=4309302.
 SCF Done:  E(RHF) =  -228.915956771     A.U. after   11 cycles
             Convg  =    0.4467D-08             -V/T =  2.0015
 Calling FoFJK, ICntrl=      2127 FMM=F ISym2X=1 I1Cent= 0 IOpClX= 0 NMat=1 NMatS=1 NMatT=0.
 ***** Axes restored to original set *****
 -------------------------------------------------------------------
 Center     Atomic                   Forces (Hartrees/Bohr)
 Number     Number              X              Y              Z
 -------------------------------------------------------------------
      1        6          -0.009749830   -0.000860474   -0.002409676
      2        6           0.009749830    0.000860474   -0.002409676
      3        1          -0.000166914   -0.000752775   -0.000016255
      4        1           0.000166914    0.000752775   -0.000016255
      5        8           0.007385453    0.000000256    0.000054540
      6        8          -0.007385453   -0.000000256    0.000054540
      7        1          -0.001769224   -0.000327928    0.002231716
      8        1          -0.000809938   -0.002637640    0.000139675
      9        1           0.001769224    0.000327928    0.002231716
     10        1           0.000809938    0.002637640    0.000139675
 -------------------------------------------------------------------
 Cartesian Forces:  Max     0.009749830 RMS     0.003392145

 GradGradGradGradGradGradGradGradGradGradGradGradGradGradGradGradGradGrad
 Berny optimization.
 Using GEDIIS/GDIIS optimizer.
 Internal  Forces:  Max     0.006052183 RMS     0.002302007
 Search for a local minimum.
 Step number   4 out of a maximum of   48
 All quantities printed in internal units (Hartrees-Bohrs-Radians)
 Mixed Optimization -- RFO/linear search
 Update second derivatives using D2CorX and points    3    4
 DE= -2.53D-03 DEPred=-3.39D-03 R= 7.46D-01
 SS=  1.41D+00  RLast= 4.73D-01 DXNew= 8.4853D-01 1.4177D+00
 Trust test= 7.46D-01 RLast= 4.73D-01 DXMaxT set to 8.49D-01
 Use linear search instead of GDIIS.
     Eigenvalues ---    0.01702   0.01709   0.02378   0.05078   0.05924
     Eigenvalues ---    0.06025   0.11367   0.12010   0.13817   0.14277
     Eigenvalues ---    0.15991   0.16000   0.22037   0.24448   0.28553
     Eigenvalues ---    0.34882   0.34951   0.34999   0.35021   0.45833
     Eigenvalues ---    0.47449   0.58470   0.585161000.000001000.00000
     Eigenvalues --- 1000.000001000.000001000.000001000.000001000.00000
     Eigenvalues --- 1000.000001000.000001000.000001000.000001000.00000
     Eigenvalues --- 1000.000001000.000001000.00000
 RFO step:  Lambda=-2.61213878D-04 EMin= 1.70174257D-02
 Quartic linear search produced a step of -0.16108.
 Iteration  1 RMS(Cart)=  0.01533518 RMS(Int)=  0.00017661
 Iteration  2 RMS(Cart)=  0.00007389 RMS(Int)=  0.00016542
 Iteration  3 RMS(Cart)=  0.00000001 RMS(Int)=  0.00016542
 Iteration  1 RMS(Cart)=  0.00000924 RMS(Int)=  0.00001073
 Iteration  2 RMS(Cart)=  0.00000582 RMS(Int)=  0.00001192
 Iteration  3 RMS(Cart)=  0.00000366 RMS(Int)=  0.00001366
 Iteration  4 RMS(Cart)=  0.00000231 RMS(Int)=  0.00001502
 Iteration  5 RMS(Cart)=  0.00000145 RMS(Int)=  0.00001595
 Iteration  6 RMS(Cart)=  0.00000091 RMS(Int)=  0.00001656
 ClnCor:  largest displacement from symmetrization is 1.73D-11 for atom     4.
 Variable       Old X    -DE/DX   Delta X   Delta X   Delta X     New X
                                 (Linear)    (Quad)   (Total)
    R1        2.87218  -0.00365   0.00023  -0.01092  -0.01069   2.86150
    R2        2.63803   0.00193   0.00345  -0.00104   0.00240   2.64044
    R3        2.05227   0.00191  -0.00086   0.00574   0.00488   2.05716
    R4        2.06116  -0.00135   0.00097  -0.00454  -0.00357   2.05759
    R5        2.63803   0.00193   0.00345  -0.00104   0.00240   2.64044
    R6        2.05227   0.00191  -0.00086   0.00574   0.00488   2.05716
    R7        2.06116  -0.00135   0.00097  -0.00454  -0.00357   2.05759
    R8        1.78912  -0.00071  -0.00016  -0.00080  -0.00096   1.78816
    R9        1.78912  -0.00071  -0.00016  -0.00080  -0.00096   1.78816
    A1        1.92208  -0.00370  -0.00307  -0.00856  -0.01128   1.91080
    A2        1.89986   0.00092   0.00654  -0.00808  -0.00140   1.89846
    A3        1.90528  -0.00189  -0.01043  -0.00253  -0.01275   1.89253
    A4        1.90679   0.00450   0.01248   0.00339   0.01597   1.92275
    A5        1.94231   0.00059  -0.00388   0.01655   0.01297   1.95528
    A6        1.88673  -0.00035  -0.00244  -0.00113  -0.00386   1.88287
    A7        1.92208  -0.00370  -0.00307  -0.00856  -0.01128   1.91080
    A8        1.89986   0.00092   0.00654  -0.00808  -0.00140   1.89846
    A9        1.90528  -0.00189  -0.01043  -0.00253  -0.01275   1.89253
   A10        1.90679   0.00450   0.01248   0.00339   0.01597   1.92275
   A11        1.94231   0.00059  -0.00388   0.01655   0.01297   1.95528
   A12        1.88673  -0.00035  -0.00244  -0.00113  -0.00386   1.88287
   A13        1.90613  -0.00020   0.00009  -0.00122  -0.00113   1.90500
   A14        1.90613  -0.00020   0.00009  -0.00122  -0.00113   1.90500
    D1       -0.82658  -0.00605   0.00000   0.00000  -0.00001  -0.82659
    D2        1.26344  -0.00221   0.01792  -0.00600   0.01184   1.27528
    D3       -2.96389  -0.00317   0.01260  -0.01342  -0.00071  -2.96459
    D4        1.26344  -0.00221   0.01792  -0.00600   0.01184   1.27528
    D5       -2.92973   0.00163   0.03584  -0.01199   0.02370  -2.90603
    D6       -0.87387   0.00067   0.03052  -0.01942   0.01115  -0.86272
    D7       -2.96389  -0.00317   0.01260  -0.01342  -0.00071  -2.96459
    D8       -0.87387   0.00067   0.03052  -0.01942   0.01115  -0.86272
    D9        1.18199  -0.00029   0.02520  -0.02684  -0.00140   1.18059
   D10        3.13246   0.00189   0.01183  -0.01444  -0.00266   3.12980
   D11        1.04665   0.00023  -0.00267  -0.00142  -0.00384   1.04280
   D12       -1.03539  -0.00260  -0.00522  -0.01244  -0.01786  -1.05325
   D13        3.13246   0.00189   0.01183  -0.01444  -0.00266   3.12980
   D14        1.04665   0.00023  -0.00267  -0.00142  -0.00384   1.04280
   D15       -1.03539  -0.00260  -0.00522  -0.01244  -0.01786  -1.05325
         Item               Value     Threshold  Converged?
 Maximum Force            0.003705     0.000450     NO 
 RMS     Force            0.001668     0.000300     NO 
 Maximum Displacement     0.030643     0.001800     NO 
 RMS     Displacement     0.015343     0.001200     NO 
 Predicted change in Energy=-2.288360D-04
 GradGradGradGradGradGradGradGradGradGradGradGradGradGradGradGradGradGrad

                          Input orientation:                          
 ---------------------------------------------------------------------
 Center     Atomic      Atomic             Coordinates (Angstroms)
 Number     Number       Type             X           Y           Z
 ---------------------------------------------------------------------
      1          6           0       -0.129930    0.745888    0.609141
      2          6           0        0.129930   -0.745888    0.609141
      3          1           0        0.137261    2.225850   -0.596439
      4          1           0       -0.137261   -2.225850   -0.596439
      5          8           0        0.311308    1.295741   -0.597218
      6          8           0       -0.311308   -1.295741   -0.597218
      7          1           0       -1.198410    0.915389    0.730255
      8          1           0        0.377405    1.183748    1.467301
      9          1           0        1.198410   -0.915389    0.730255
     10          1           0       -0.377405   -1.183748    1.467301
 ---------------------------------------------------------------------
                    Distance matrix (angstroms):
                    1          2          3          4          5
     1  C    0.000000
     2  C    1.514240   0.000000
     3  H    1.927459   3.206977   0.000000
     4  H    3.206977   1.927459   4.460155   0.000000
     5  O    1.397259   2.378329   0.946253   3.550044   0.000000
     6  O    2.378329   1.397259   3.550044   0.946253   2.665226
     7  H    1.088600   2.130492   2.293783   3.571209   2.045997
     8  H    1.088829   2.126306   2.324363   4.018614   2.068611
     9  H    2.130492   1.088600   3.571209   2.293783   2.727312
    10  H    2.126306   1.088829   4.018614   2.324363   3.299156
                    6          7          8          9         10
     6  O    0.000000
     7  H    2.727312   0.000000
     8  H    3.299156   1.760241   0.000000
     9  H    2.045997   3.016040   2.371426   0.000000
    10  H    2.068611   2.371426   2.484910   1.760241   0.000000
 Stoichiometry    C2H6O2
 Framework group  C2[X(C2H6O2)]
 Deg. of freedom    13
 Full point group                 C2      NOp   2
 Largest Abelian subgroup         C2      NOp   2
 Largest concise Abelian subgroup C2      NOp   2
                         Standard orientation:                         
 ---------------------------------------------------------------------
 Center     Atomic      Atomic             Coordinates (Angstroms)
 Number     Number       Type             X           Y           Z
 ---------------------------------------------------------------------
      1          6           0       -0.195425    0.731464    0.581011
      2          6           0        0.195425   -0.731464    0.581011
      3          1           0       -0.060247    2.229264   -0.624569
      4          1           0        0.060247   -2.229264   -0.624569
      5          8           0        0.195425    1.318206   -0.625349
      6          8           0       -0.195425   -1.318206   -0.625349
      7          1           0       -1.274713    0.805748    0.702124
      8          1           0        0.271173    1.212501    1.439171
      9          1           0        1.274713   -0.805748    0.702124
     10          1           0       -0.271173   -1.212501    1.439171
 ---------------------------------------------------------------------
 Rotational constants (GHZ):     15.8608755      5.7242979      4.6252326
 Standard basis: 6-31G(d) (6D, 7F)
 There are    36 symmetry adapted basis functions of A   symmetry.
 There are    36 symmetry adapted basis functions of B   symmetry.
 Integral buffers will be    131072 words long.
 Raffenetti 1 integral format.
 Two-electron integral symmetry is turned on.
    72 basis functions,   136 primitive gaussians,    72 cartesian basis functions
    17 alpha electrons       17 beta electrons
       nuclear repulsion energy       134.1784608274 Hartrees.
 NAtoms=   10 NActive=   10 NUniq=    5 SFac= 3.00D+00 NAtFMM=   80 NAOKFM=F Big=F
 One-electron integrals computed using PRISM.
 NBasis=    72 RedAO= T  NBF=    36    36
 NBsUse=    72 1.00D-06 NBFU=    36    36
 Initial guess read from the read-write file.
 B after Tr=     0.000000    0.000000    0.000000
         Rot=    1.000000    0.000000    0.000000    0.000000 Ang=   0.00 deg.
 Initial guess orbital symmetries:
       Occupied  (B) (A) (A) (B) (A) (B) (A) (B) (A) (B) (B) (A)
                 (A) (B) (A) (B) (A)
       Virtual   (A) (B) (A) (B) (B) (A) (A) (B) (B) (A) (B) (A)
                 (B) (A) (B) (A) (B) (A) (B) (A) (A) (B) (B) (A)
                 (B) (A) (A) (B) (B) (B) (A) (A) (B) (A) (B) (A)
                 (B) (A) (B) (A) (B) (A) (B) (A) (A) (B) (B) (A)
                 (B) (A) (B) (A) (B) (A) (B)
 Harris functional with IExCor=  205 diagonalized for initial guess.
 ExpMin= 1.61D-01 ExpMax= 5.48D+03 ExpMxC= 8.25D+02 IAcc=1 IRadAn=         1 AccDes= 0.00D+00
 HarFok:  IExCor=  205 AccDes= 0.00D+00 IRadAn=         1 IDoV= 1
 ScaDFX=  1.000000  1.000000  1.000000  1.000000
 FoFCou: FMM=F IPFlag=           0 FMFlag=      100000 FMFlg1=           0
         NFxFlg=           0 DoJE=T BraDBF=F KetDBF=T FulRan=T
         Omega=  0.000000  0.000000  1.000000  0.000000  0.000000 ICntrl=     500 IOpCl=  0
         NMat0=    1 NMatS0=    1 NMatT0=    0 NMatD0=    1 NMtDS0=    0 NMtDT0=    0
         I1Cent=           4 NGrid=           0.
 Petite list used in FoFCou.
 Requested convergence on RMS density matrix=1.00D-08 within 128 cycles.
 Requested convergence on MAX density matrix=1.00D-06.
 Requested convergence on             energy=1.00D-06.
 No special actions if energy rises.
 Keep R1 ints in memory in canonical form, NReq=4309302.
 SCF Done:  E(RHF) =  -228.916155269     A.U. after   10 cycles
             Convg  =    0.3514D-08             -V/T =  2.0015
 Calling FoFJK, ICntrl=      2127 FMM=F ISym2X=1 I1Cent= 0 IOpClX= 0 NMat=1 NMatS=1 NMatT=0.
 ***** Axes restored to original set *****
 -------------------------------------------------------------------
 Center     Atomic                   Forces (Hartrees/Bohr)
 Number     Number              X              Y              Z
 -------------------------------------------------------------------
      1        6          -0.009366837   -0.001179428   -0.002850434
      2        6           0.009366837    0.001179428   -0.002850434
      3        1          -0.000115770    0.000093985   -0.000311755
      4        1           0.000115770   -0.000093985   -0.000311755
      5        8           0.005488281    0.001419319    0.003120030
      6        8          -0.005488281   -0.001419319    0.003120030
      7        1           0.000079218    0.000513292    0.000032975
      8        1           0.000126718    0.000256369    0.000009184
      9        1          -0.000079218   -0.000513292    0.000032975
     10        1          -0.000126718   -0.000256369    0.000009184
 -------------------------------------------------------------------
 Cartesian Forces:  Max     0.009366837 RMS     0.003050640

 GradGradGradGradGradGradGradGradGradGradGradGradGradGradGradGradGradGrad
 Berny optimization.
 Using GEDIIS/GDIIS optimizer.
 Internal  Forces:  Max     0.005723826 RMS     0.001575135
 Search for a local minimum.
 Step number   5 out of a maximum of   48
 All quantities printed in internal units (Hartrees-Bohrs-Radians)
 Mixed Optimization -- En-DIIS/RFO-DIIS
 Update second derivatives using D2CorX and points    3    4    5
 DE= -1.98D-04 DEPred=-2.29D-04 R= 8.67D-01
 SS=  1.41D+00  RLast= 5.86D-02 DXNew= 1.4270D+00 1.7591D-01
 Trust test= 8.67D-01 RLast= 5.86D-02 DXMaxT set to 8.49D-01
 Use linear search instead of GDIIS.
     Eigenvalues ---    0.01647   0.01709   0.02408   0.05157   0.05947
     Eigenvalues ---    0.06005   0.11221   0.12701   0.13762   0.13933
     Eigenvalues ---    0.16000   0.16094   0.22021   0.24782   0.32710
     Eigenvalues ---    0.34883   0.34951   0.35021   0.35659   0.45833
     Eigenvalues ---    0.47903   0.58470   0.585971000.000001000.00000
     Eigenvalues --- 1000.000001000.000001000.000001000.000001000.00000
     Eigenvalues --- 1000.000001000.000001000.000001000.000001000.00000
     Eigenvalues --- 1000.000001000.000001000.00000
 RFO step:  Lambda=-1.92959333D-05 EMin= 1.64745904D-02
 Quartic linear search produced a step of -0.11565.
 Iteration  1 RMS(Cart)=  0.00379101 RMS(Int)=  0.00000895
 Iteration  2 RMS(Cart)=  0.00000579 RMS(Int)=  0.00000683
 Iteration  3 RMS(Cart)=  0.00000000 RMS(Int)=  0.00000683
 Iteration  1 RMS(Cart)=  0.00000161 RMS(Int)=  0.00000187
 Iteration  2 RMS(Cart)=  0.00000102 RMS(Int)=  0.00000208
 Iteration  3 RMS(Cart)=  0.00000064 RMS(Int)=  0.00000239
 ClnCor:  largest displacement from symmetrization is 2.47D-13 for atom    10.
 Variable       Old X    -DE/DX   Delta X   Delta X   Delta X     New X
                                 (Linear)    (Quad)   (Total)
    R1        2.86150   0.00174   0.00124   0.00349   0.00473   2.86623
    R2        2.64044  -0.00013  -0.00028   0.00037   0.00009   2.64053
    R3        2.05716   0.00001  -0.00056   0.00076   0.00020   2.05735
    R4        2.05759   0.00017   0.00041  -0.00011   0.00030   2.05789
    R5        2.64044  -0.00013  -0.00028   0.00037   0.00009   2.64053
    R6        2.05716   0.00001  -0.00056   0.00076   0.00020   2.05735
    R7        2.05759   0.00017   0.00041  -0.00011   0.00030   2.05789
    R8        1.78816   0.00011   0.00011   0.00000   0.00011   1.78827
    R9        1.78816   0.00011   0.00011   0.00000   0.00011   1.78827
    A1        1.91080   0.00066   0.00130   0.00068   0.00198   1.91278
    A2        1.89846   0.00081   0.00016   0.00311   0.00326   1.90173
    A3        1.89253  -0.00051   0.00148  -0.00220  -0.00073   1.89180
    A4        1.92275   0.00175  -0.00185   0.00104  -0.00082   1.92194
    A5        1.95528  -0.00255  -0.00150  -0.00027  -0.00175   1.95352
    A6        1.88287  -0.00012   0.00045  -0.00232  -0.00185   1.88102
    A7        1.91080   0.00066   0.00130   0.00068   0.00198   1.91278
    A8        1.89846   0.00081   0.00016   0.00311   0.00326   1.90173
    A9        1.89253  -0.00051   0.00148  -0.00220  -0.00073   1.89180
   A10        1.92275   0.00175  -0.00185   0.00104  -0.00082   1.92194
   A11        1.95528  -0.00255  -0.00150  -0.00027  -0.00175   1.95352
   A12        1.88287  -0.00012   0.00045  -0.00232  -0.00185   1.88102
   A13        1.90500   0.00044   0.00013   0.00217   0.00231   1.90730
   A14        1.90500   0.00044   0.00013   0.00217   0.00231   1.90730
    D1       -0.82659  -0.00572   0.00000   0.00000   0.00000  -0.82659
    D2        1.27528  -0.00270  -0.00137   0.00357   0.00221   1.27749
    D3       -2.96459  -0.00268   0.00008   0.00130   0.00139  -2.96321
    D4        1.27528  -0.00270  -0.00137   0.00357   0.00221   1.27749
    D5       -2.90603   0.00033  -0.00274   0.00714   0.00441  -2.90162
    D6       -0.86272   0.00034  -0.00129   0.00488   0.00359  -0.85913
    D7       -2.96459  -0.00268   0.00008   0.00130   0.00139  -2.96321
    D8       -0.86272   0.00034  -0.00129   0.00488   0.00359  -0.85913
    D9        1.18059   0.00036   0.00016   0.00261   0.00277   1.18336
   D10        3.12980   0.00132   0.00031  -0.00485  -0.00455   3.12526
   D11        1.04280  -0.00116   0.00044  -0.00973  -0.00930   1.03350
   D12       -1.05325  -0.00052   0.00207  -0.00733  -0.00526  -1.05851
   D13        3.12980   0.00132   0.00031  -0.00485  -0.00455   3.12526
   D14        1.04280  -0.00116   0.00044  -0.00973  -0.00930   1.03350
   D15       -1.05325  -0.00052   0.00207  -0.00733  -0.00526  -1.05851
         Item               Value     Threshold  Converged?
 Maximum Force            0.001737     0.000450     NO 
 RMS     Force            0.000398     0.000300     NO 
 Maximum Displacement     0.010208     0.001800     NO 
 RMS     Displacement     0.003789     0.001200     NO 
 Predicted change in Energy=-1.309878D-05
 GradGradGradGradGradGradGradGradGradGradGradGradGradGradGradGradGradGrad

                          Input orientation:                          
 ---------------------------------------------------------------------
 Center     Atomic      Atomic             Coordinates (Angstroms)
 Number     Number       Type             X           Y           Z
 ---------------------------------------------------------------------
      1          6           0       -0.129770    0.747185    0.608871
      2          6           0        0.129770   -0.747185    0.608871
      3          1           0        0.133833    2.228932   -0.597828
      4          1           0       -0.133833   -2.228932   -0.597827
      5          8           0        0.310944    1.299346   -0.596683
      6          8           0       -0.310944   -1.299346   -0.596683
      7          1           0       -1.197455    0.920791    0.732115
      8          1           0        0.379294    1.184344    1.466564
      9          1           0        1.197455   -0.920791    0.732115
     10          1           0       -0.379294   -1.184344    1.466564
 ---------------------------------------------------------------------
                    Distance matrix (angstroms):
                    1          2          3          4          5
     1  C    0.000000
     2  C    1.516741   0.000000
     3  H    1.929037   3.211450   0.000000
     4  H    3.211450   1.929037   4.465894   0.000000
     5  O    1.397308   2.382115   0.946310   3.556202   0.000000
     6  O    2.382115   1.397308   3.556202   0.946310   2.672067
     7  H    1.088705   2.135149   2.291792   3.580614   2.045551
     8  H    1.088987   2.128076   2.326614   4.021874   2.067580
     9  H    2.135149   1.088705   3.580614   2.291792   2.735071
    10  H    2.128076   1.088987   4.021874   2.326614   3.301838
                    6          7          8          9         10
     6  O    0.000000
     7  H    2.735071   0.000000
     8  H    3.301838   1.759265   0.000000
     9  H    2.045551   3.021095   2.374952   0.000000
    10  H    2.067580   2.374952   2.487195   1.759265   0.000000
 Stoichiometry    C2H6O2
[...]
 Calling FoFJK, ICntrl=      2127 FMM=F ISym2X=1 I1Cent= 0 IOpClX= 0 NMat=1 NMatS=1 NMatT=0.
 ***** Axes restored to original set *****
 -------------------------------------------------------------------
 Center     Atomic                   Forces (Hartrees/Bohr)
 Number     Number              X              Y              Z
 -------------------------------------------------------------------
      1        6          -0.008935767   -0.001526297   -0.002356602
      2        6           0.008935767    0.001526297   -0.002356602
      3        1          -0.000002781    0.000009202   -0.000000822
      4        1           0.000002781   -0.000009202   -0.000000822
      5        8           0.005543167    0.000934689    0.002378803
      6        8          -0.005543167   -0.000934689    0.002378803
      7        1           0.000005823   -0.000010145   -0.000008630
      8        1          -0.000002637    0.000001464   -0.000012749
      9        1          -0.000005823    0.000010145   -0.000008630
     10        1           0.000002637   -0.000001464   -0.000012749
 -------------------------------------------------------------------
 Cartesian Forces:  Max     0.008935767 RMS     0.002886643

 GradGradGradGradGradGradGradGradGradGradGradGradGradGradGradGradGradGrad
 Berny optimization.
 Using GEDIIS/GDIIS optimizer.
 Internal  Forces:  Max     0.005623214 RMS     0.001498068
 Search for a local minimum.
 Step number   9 out of a maximum of   48
 All quantities printed in internal units (Hartrees-Bohrs-Radians)
 Mixed Optimization -- En-DIIS/RFO-DIIS
 Swaping is turned off.
 Update second derivatives using D2CorX and points    3    4    5    6    7
                                                      8    9
 DE= -4.34D-07 DEPred=-3.12D-07 R= 1.39D+00
 Trust test= 1.39D+00 RLast= 1.04D-02 DXMaxT set to 8.49D-01
     Eigenvalues ---    0.00228   0.01709   0.02468   0.05134   0.05913
     Eigenvalues ---    0.05994   0.11247   0.12761   0.13776   0.14258
     Eigenvalues ---    0.16000   0.16696   0.22019   0.25276   0.34184
     Eigenvalues ---    0.34951   0.35021   0.35662   0.35735   0.42936
     Eigenvalues ---    0.45833   0.58470   0.587671000.000001000.00000
     Eigenvalues --- 1000.000001000.000001000.000001000.000001000.00000
     Eigenvalues --- 1000.000001000.000001000.000001000.000001000.00000
     Eigenvalues --- 1000.000001000.000001000.00000
 En-DIIS/RFO-DIIS IScMMF=        0 using points:     9    8    7    6    5
 RFO step:  Lambda=-2.72510604D-06.
 DIIS coeffs:      1.20176     -0.18413     -0.14806      0.13467     -0.00424
 Iteration  1 RMS(Cart)=  0.00012758 RMS(Int)=  0.00000073
 Iteration  2 RMS(Cart)=  0.00000003 RMS(Int)=  0.00000073
 Iteration  1 RMS(Cart)=  0.00000086 RMS(Int)=  0.00000100
 ClnCor:  largest displacement from symmetrization is 2.21D-11 for atom     9.
 Variable       Old X    -DE/DX   Delta X   Delta X   Delta X     New X
                                  (DIIS)     (GDIIS)  (Total)
    R1        2.86618  -0.00003  -0.00008  -0.00004  -0.00011   2.86607
    R2        2.63948   0.00008   0.00017   0.00008   0.00024   2.63972
    R3        2.05704  -0.00001   0.00001  -0.00004  -0.00003   2.05701
    R4        2.05830  -0.00001  -0.00007   0.00002  -0.00005   2.05826
    R5        2.63948   0.00008   0.00017   0.00008   0.00024   2.63972
    R6        2.05704  -0.00001   0.00001  -0.00004  -0.00003   2.05701
    R7        2.05830  -0.00001  -0.00007   0.00002  -0.00005   2.05826
    R8        1.78814   0.00001  -0.00001   0.00002   0.00002   1.78815
    R9        1.78814   0.00001  -0.00001   0.00002   0.00002   1.78815
    A1        1.91364   0.00002  -0.00008   0.00007  -0.00001   1.91362
    A2        1.90074   0.00048   0.00003  -0.00011  -0.00008   1.90066
    A3        1.89184  -0.00048   0.00006   0.00007   0.00013   1.89197
    A4        1.92225   0.00216  -0.00005   0.00000  -0.00005   1.92220
    A5        1.95331  -0.00216   0.00002  -0.00008  -0.00006   1.95325
    A6        1.88096   0.00000   0.00003   0.00005   0.00008   1.88104
    A7        1.91364   0.00002  -0.00008   0.00007  -0.00001   1.91362
    A8        1.90074   0.00048   0.00003  -0.00011  -0.00008   1.90066
    A9        1.89184  -0.00048   0.00006   0.00007   0.00013   1.89197
   A10        1.92225   0.00216  -0.00005   0.00000  -0.00005   1.92220
   A11        1.95331  -0.00216   0.00002  -0.00008  -0.00006   1.95325
   A12        1.88096   0.00000   0.00003   0.00005   0.00008   1.88104
   A13        1.90718   0.00000  -0.00009   0.00007  -0.00002   1.90716
   A14        1.90718   0.00000  -0.00009   0.00007  -0.00002   1.90716
    D1       -0.82659  -0.00562   0.00000   0.00000   0.00000  -0.82659
    D2        1.27778  -0.00267  -0.00009  -0.00004  -0.00012   1.27766
    D3       -2.96350  -0.00267   0.00000   0.00001   0.00000  -2.96349
    D4        1.27778  -0.00267  -0.00009  -0.00004  -0.00012   1.27766
    D5       -2.90103   0.00028  -0.00018  -0.00007  -0.00024  -2.90127
    D6       -0.85913   0.00028  -0.00009  -0.00002  -0.00012  -0.85924
    D7       -2.96350  -0.00267   0.00000   0.00001   0.00000  -2.96349
    D8       -0.85913   0.00028  -0.00009  -0.00002  -0.00012  -0.85924
    D9        1.18278   0.00028  -0.00001   0.00002   0.00001   1.18278
   D10        3.07413   0.00131  -0.00035  -0.00005  -0.00040   3.07374
   D11        0.98287  -0.00064  -0.00031   0.00005  -0.00026   0.98261
   D12       -1.10914  -0.00068  -0.00032   0.00004  -0.00029  -1.10943
   D13        3.07413   0.00131  -0.00035  -0.00005  -0.00040   3.07374
   D14        0.98287  -0.00064  -0.00031   0.00005  -0.00026   0.98261
   D15       -1.10914  -0.00068  -0.00032   0.00004  -0.00029  -1.10943
         Item               Value     Threshold  Converged?
 Maximum Force            0.000085     0.000450     YES
 RMS     Force            0.000021     0.000300     YES
 Maximum Displacement     0.000274     0.001800     YES
 RMS     Displacement     0.000128     0.001200     YES
 Predicted change in Energy=-3.656850D-08
 Optimization completed.
    -- Stationary point found.
                           ----------------------------
                           !   Optimized Parameters   !
                           ! (Angstroms and Degrees)  !
 --------------------------                            --------------------------
 ! Name  Definition              Value          Derivative Info.                !
 --------------------------------------------------------------------------------
 ! R1    R(1,2)                  1.5167         -DE/DX =    0.0                 !
 ! R2    R(1,5)                  1.3968         -DE/DX =    0.0001              !
 ! R3    R(1,7)                  1.0885         -DE/DX =    0.0                 !
 ! R4    R(1,8)                  1.0892         -DE/DX =    0.0                 !
 ! R5    R(2,6)                  1.3968         -DE/DX =    0.0001              !
 ! R6    R(2,9)                  1.0885         -DE/DX =    0.0                 !
 ! R7    R(2,10)                 1.0892         -DE/DX =    0.0                 !
 ! R8    R(3,5)                  0.9462         -DE/DX =    0.0                 !
 ! R9    R(4,6)                  0.9462         -DE/DX =    0.0                 !
 ! A1    A(2,1,5)              109.6432         -DE/DX =    0.0                 !
 ! A2    A(2,1,7)              108.9043         -DE/DX =    0.0005              !
 ! A3    A(2,1,8)              108.3946         -DE/DX =   -0.0005              !
 ! A4    A(5,1,7)              110.137          -DE/DX =    0.0022              !
 ! A5    A(5,1,8)              111.9164         -DE/DX =   -0.0022              !
 ! A6    A(7,1,8)              107.771          -DE/DX =    0.0                 !
 ! A7    A(1,2,6)              109.6432         -DE/DX =    0.0                 !
 ! A8    A(1,2,9)              108.9043         -DE/DX =    0.0005              !
 ! A9    A(1,2,10)             108.3946         -DE/DX =   -0.0005              !
 ! A10   A(6,2,9)              110.137          -DE/DX =    0.0022              !
 ! A11   A(6,2,10)             111.9164         -DE/DX =   -0.0022              !
 ! A12   A(9,2,10)             107.771          -DE/DX =    0.0                 !
 ! A13   A(1,5,3)              109.2734         -DE/DX =    0.0                 !
 ! A14   A(2,6,4)              109.2734         -DE/DX =    0.0                 !
 ! D1    D(5,1,2,6)            -47.36           -DE/DX =   -0.0056              !
 ! D2    D(5,1,2,9)             73.2116         -DE/DX =   -0.0027              !
 ! D3    D(5,1,2,10)          -169.796          -DE/DX =   -0.0027              !
 ! D4    D(7,1,2,6)             73.2116         -DE/DX =   -0.0027              !
 ! D5    D(7,1,2,9)           -166.2167         -DE/DX =    0.0003              !
 ! D6    D(7,1,2,10)           -49.2243         -DE/DX =    0.0003              !
 ! D7    D(8,1,2,6)           -169.796          -DE/DX =   -0.0027              !
 ! D8    D(8,1,2,9)            -49.2243         -DE/DX =    0.0003              !
 ! D9    D(8,1,2,10)            67.7681         -DE/DX =    0.0003              !
 ! D10   D(2,1,5,3)            176.135          -DE/DX =    0.0013              !
 ! D11   D(7,1,5,3)             56.3143         -DE/DX =   -0.0006              !
 ! D12   D(8,1,5,3)            -63.5493         -DE/DX =   -0.0007              !
 ! D13   D(1,2,6,4)            176.135          -DE/DX =    0.0013              !
 ! D14   D(9,2,6,4)             56.3143         -DE/DX =   -0.0006              !
 ! D15   D(10,2,6,4)           -63.5493         -DE/DX =   -0.0007              !
 --------------------------------------------------------------------------------
 GradGradGradGradGradGradGradGradGradGradGradGradGradGradGradGradGradGrad

                          Input orientation:                          
 ---------------------------------------------------------------------
 Center     Atomic      Atomic             Coordinates (Angstroms)
 Number     Number       Type             X           Y           Z
 ---------------------------------------------------------------------
      1          6           0       -0.123480    0.748238    0.612016
      2          6           0        0.123480   -0.748238    0.612016
      3          1           0        0.111038    2.219906   -0.611907
      4          1           0       -0.111038   -2.219906   -0.611907
      5          8           0        0.321347    1.297533   -0.592694
      6          8           0       -0.321347   -1.297533   -0.592694
      7          1           0       -1.189643    0.929736    0.735586
      8          1           0        0.389087    1.181183    1.470039
      9          1           0        1.189643   -0.929736    0.735586
     10          1           0       -0.389087   -1.181183    1.470039
 ---------------------------------------------------------------------
                    Distance matrix (angstroms):
                    1          2          3          4          5
     1  C    0.000000
     2  C    1.516717   0.000000
     3  H    1.928417   3.210611   0.000000
     4  H    3.210611   1.928417   4.445363   0.000000
     5  O    1.396754   2.382364   0.946241   3.543968   0.000000
     6  O    2.382364   1.396754   3.543968   0.946241   2.673467
     7  H    1.088538   2.134282   2.274213   3.591570   2.045163
     8  H    1.089206   2.128243   2.343236   4.018959   2.067122
     9  H    2.134282   1.088538   3.591570   2.274213   2.734775
    10  H    2.128243   1.089206   4.018959   2.343236   3.302063
                    6          7          8          9         10
     6  O    0.000000
     7  H    2.734775   0.000000
     8  H    3.302063   1.759271   0.000000
     9  H    2.045163   3.019708   2.374088   0.000000
    10  H    2.067122   2.374088   2.487234   1.759271   0.000000
 Stoichiometry    C2H6O2
 Framework group  C2[X(C2H6O2)]
 Deg. of freedom    13
 Full point group                 C2      NOp   2
 Largest Abelian subgroup         C2      NOp   2
 Largest concise Abelian subgroup C2      NOp   2
                         Standard orientation:                         
 ---------------------------------------------------------------------
 Center     Atomic      Atomic             Coordinates (Angstroms)
 Number     Number       Type             X           Y           Z
 ---------------------------------------------------------------------
      1          6           0       -0.194940    0.732875    0.581177
      2          6           0        0.194940   -0.732875    0.581177
      3          1           0       -0.103191    2.220285   -0.642746
      4          1           0        0.103191   -2.220285   -0.642746
      5          8           0        0.194940    1.322443   -0.623533
      6          8           0       -0.194940   -1.322443   -0.623533
      7          1           0       -1.273624    0.810890    0.704748
      8          1           0        0.273566    1.213155    1.439200
      9          1           0        1.273624   -0.810890    0.704748
     10          1           0       -0.273566   -1.213155    1.439200
 ---------------------------------------------------------------------
 Rotational constants (GHZ):     15.8584034      5.7018562      4.6116960

 **********************************************************************

            Population analysis using the SCF density.

 **********************************************************************

 Orbital symmetries:
       Occupied  (B) (A) (A) (B) (A) (B) (A) (B) (A) (B) (B) (A)
                 (A) (B) (A) (B) (A)
       Virtual   (A) (B) (A) (B) (B) (A) (A) (B) (B) (A) (B) (A)
                 (B) (A) (B) (A) (B) (A) (B) (A) (A) (B) (B) (A)
                 (B) (A) (A) (B) (B) (B) (A) (A) (B) (A) (B) (A)
                 (B) (A) (B) (A) (B) (A) (A) (B) (A) (B) (B) (A)
                 (B) (A) (B) (A) (B) (A) (B)
 The electronic state is 1-A.
 Alpha  occ. eigenvalues --  -20.55086 -20.55086 -11.27131 -11.27067  -1.37188
 Alpha  occ. eigenvalues --   -1.34837  -1.00101  -0.82909  -0.72216  -0.69223
 Alpha  occ. eigenvalues --   -0.62675  -0.59748  -0.58301  -0.51959  -0.47477
 Alpha  occ. eigenvalues --   -0.44335  -0.42958
 Alpha virt. eigenvalues --    0.21747   0.24776   0.27349   0.30777   0.32427
 Alpha virt. eigenvalues --    0.35474   0.39085   0.41843   0.44209   0.75462
 Alpha virt. eigenvalues --    0.80513   0.81567   0.82761   0.90355   0.92545
 Alpha virt. eigenvalues --    1.05878   1.11211   1.12589   1.13284   1.14073
 Alpha virt. eigenvalues --    1.19066   1.21312   1.27314   1.28691   1.30148
 Alpha virt. eigenvalues --    1.30727   1.41060   1.45126   1.62999   1.68594
 Alpha virt. eigenvalues --    1.74780   1.79674   1.96893   2.01859   2.04620
 Alpha virt. eigenvalues --    2.06840   2.07684   2.21992   2.37761   2.41864
 Alpha virt. eigenvalues --    2.46565   2.49792   2.69868   2.71540   2.75817
 Alpha virt. eigenvalues --    2.77800   2.83557   2.92175   3.05472   3.16567
 Alpha virt. eigenvalues --    3.26720   4.12614   4.22861   4.62656   4.86051
          Condensed to atoms (all electrons):
              1          2          3          4          5          6
     1  C    4.787017   0.358916  -0.023209   0.006156   0.222214  -0.055065
     2  C    0.358916   4.787017   0.006156  -0.023209  -0.055065   0.222214
     3  H   -0.023209   0.006156   0.322500   0.000017   0.263314  -0.000124
     4  H    0.006156  -0.023209   0.000017   0.322500  -0.000124   0.263314
     5  O    0.222214  -0.055065   0.263314  -0.000124   8.362405   0.003804
     6  O   -0.055065   0.222214  -0.000124   0.263314   0.003804   8.362405
     7  H    0.397338  -0.041108  -0.004228  -0.000239  -0.042302   0.000395
     8  H    0.396651  -0.048094  -0.003151  -0.000165  -0.037990   0.002920
     9  H   -0.041108   0.397338  -0.000239  -0.004228   0.000395  -0.042302
    10  H   -0.048094   0.396651  -0.000165  -0.003151   0.002920  -0.037990
              7          8          9         10
     1  C    0.397338   0.396651  -0.041108  -0.048094
     2  C   -0.041108  -0.048094   0.397338   0.396651
     3  H   -0.004228  -0.003151  -0.000239  -0.000165
     4  H   -0.000239  -0.000165  -0.004228  -0.003151
     5  O   -0.042302  -0.037990   0.000395   0.002920
     6  O    0.000395   0.002920  -0.042302  -0.037990
     7  H    0.589796  -0.046118   0.005767  -0.004285
     8  H   -0.046118   0.601307  -0.004285   0.002652
     9  H    0.005767  -0.004285   0.589796  -0.046118
    10  H   -0.004285   0.002652  -0.046118   0.601307
 Mulliken atomic charges:
              1
     1  C   -0.000816
     2  C   -0.000816
     3  H    0.439129
     4  H    0.439129
     5  O   -0.719572
     6  O   -0.719572
     7  H    0.144984
     8  H    0.136274
     9  H    0.144984
    10  H    0.136274
 Sum of Mulliken atomic charges =   0.00000
 Mulliken charges with hydrogens summed into heavy atoms:
              1
     1  C    0.280442
     2  C    0.280442
     5  O   -0.280442
     6  O   -0.280442
 Sum of Mulliken charges with hydrogens summed into heavy atoms =   0.00000
 Electronic spatial extent (au):  <R**2>=            297.4176
 Charge=              0.0000 electrons
 Dipole moment (field-independent basis, Debye):
    X=              0.0000    Y=              0.0000    Z=              2.3983  Tot=              2.3983
 Quadrupole moment (field-independent basis, Debye-Ang):
   XX=            -25.5121   YY=            -15.5681   ZZ=            -26.2858
   XY=             -3.0599   XZ=              0.0000   YZ=              0.0000
 Traceless Quadrupole moment (field-independent basis, Debye-Ang):
   XX=             -3.0568   YY=              6.8872   ZZ=             -3.8305
   XY=             -3.0599   XZ=              0.0000   YZ=              0.0000
 Octapole moment (field-independent basis, Debye-Ang**2):
  XXX=              0.0000  YYY=              0.0000  ZZZ=             -3.0797  XYY=              0.0000
  XXY=              0.0000  XXZ=             -0.8311  XZZ=              0.0000  YZZ=              0.0000
  YYZ=             -6.7627  XYZ=              2.0606
 Hexadecapole moment (field-independent basis, Debye-Ang**3):
 XXXX=            -41.5202 YYYY=           -135.4756 ZZZZ=            -94.9364 XXXY=             -2.1187
 XXXZ=              0.0000 YYYX=             -9.4743 YYYZ=              0.0000 ZZZX=              0.0000
 ZZZY=              0.0000 XXYY=            -44.5518 XXZZ=            -23.2116 YYZZ=            -47.6727
 XXYZ=              0.0000 YYXZ=              0.0000 ZZXY=             -0.3703
 N-N= 1.340786682142D+02 E-N=-8.079906527700D+02  KE= 2.285669150416D+02
 Symmetry A    KE= 1.154149952337D+02
 Symmetry B    KE= 1.131519198079D+02
 1\1\GINC-NODE9\FOpt\RHF\6-31G(d)\C2H6O2\WUCH\14-Sep-2010\0\\#HF/6-31G*
  Opt=ModRed MaxDisk=32GB\\12-ethanediol Rotatable Bond Optimization on
  node9.bme.utexas.edu\\0,1\C,-0.123479571,0.7482381022,0.6120158103\C,
 0.1234795868,-0.7482380818,0.6120158259\H,0.1110375472,2.2199063032,-0
 .6119067892\H,-0.1110375544,-2.2199063121,-0.611906734\O,0.3213471033,
 1.2975332308,-0.592694191\O,-0.32134711,-1.2975332392,-0.5926941538\H,
 -1.1896426218,0.929736428,0.7355863504\H,0.3890871222,1.1811833764,1.4
 700388231\H,1.1896426399,-0.9297364047,0.7355863504\H,-0.3890870903,-1
 .1811833354,1.4700388587\\Version=EM64L-G09RevA.02\State=1-A\HF=-228.9
 161865\RMSD=6.368e-09\RMSF=2.887e-03\Dipole=0.,0.,0.9435731\Quadrupole
 =-2.6401085,5.4879562,-2.8478477,-1.5243604,0.,0.\PG=C02 [X(C2H6O2)]\\
 @


 EVERYBODY NEEDS BEAUTY AS WELL AS BREAD, PLACES TO PLAY IN AND PRAY IN,
 WHERE NATURE MAY HEAL AND CHEER AND GIVE STRENGTH TO BODY AND SOUL ALIKE.

                                    -- JOHN MUIR
 Job cpu time:  0 days  0 hours  0 minutes 46.9 seconds.
 File lengths (MBytes):  RWF=      5 Int=      0 D2E=      0 Chk=      2 Scr=      1
 Normal termination of Gaussian 09 at Tue Sep 14 14:45:47 2010.
