 Entering Gaussian System, Link 0=/opt/g09/gaussian/g09/bin/g09
 Input=12-ethanediol-opt-5-1-2-6-343.com
 Output=12-ethanediol-opt-5-1-2-6-343.log
 Initial command:
 /opt/g09/gaussian/g09/bin/l1.exe /scratch/Gau-12-ethanediol/Gau-19527.inp -scrdir=/scratch/Gau-12-ethanediol/
 Entering Link 1 = /opt/g09/gaussian/g09/bin/l1.exe PID=     19528.
  
 Copyright (c) 1988,1990,1992,1993,1995,1998,2003,2009, Gaussian, Inc.
                  All Rights Reserved.
  
 This is part of the Gaussian(R) 09 program.  It is based on
 the Gaussian(R) 03 system (copyright 2003, Gaussian, Inc.),
 the Gaussian(R) 98 system (copyright 1998, Gaussian, Inc.),
 the Gaussian(R) 94 system (copyright 1995, Gaussian, Inc.),
 the Gaussian 92(TM) system (copyright 1992, Gaussian, Inc.),
 the Gaussian 90(TM) system (copyright 1990, Gaussian, Inc.),
 the Gaussian 88(TM) system (copyright 1988, Gaussian, Inc.),
 the Gaussian 86(TM) system (copyright 1986, Carnegie Mellon
 University), and the Gaussian 82(TM) system (copyright 1983,
 Carnegie Mellon University). Gaussian is a federally registered
 trademark of Gaussian, Inc.
  
 This software contains proprietary and confidential information,
 including trade secrets, belonging to Gaussian, Inc.
  
 This software is provided under written license and may be
 used, copied, transmitted, or stored only in accord with that
 written license.
  
 The following legend is applicable only to US Government
 contracts under FAR:
  
                    RESTRICTED RIGHTS LEGEND
  
 Use, reproduction and disclosure by the US Government is
 subject to restrictions as set forth in subparagraphs (a)
 and (c) of the Commercial Computer Software - Restricted
 Rights clause in FAR 52.227-19.
  
 Gaussian, Inc.
 340 Quinnipiac St., Bldg. 40, Wallingford CT 06492
  
  
 ---------------------------------------------------------------
 Warning -- This program may not be used in any manner that
 competes with the business of Gaussian, Inc. or will provide
 assistance to any competitor of Gaussian, Inc.  The licensee
 of this program is prohibited from giving any competitor of
 Gaussian, Inc. access to this program.  By using this program,
 the user acknowledges that Gaussian, Inc. is engaged in the
 business of creating and licensing software in the field of
 computational chemistry and represents and warrants to the
 licensee that it is not a competitor of Gaussian, Inc. and that
 it will not use this program in any manner prohibited above.
 ---------------------------------------------------------------
  

 Cite this work as:
 Gaussian 09, Revision A.02,
 M. J. Frisch, G. W. Trucks, H. B. Schlegel, G. E. Scuseria, 
 M. A. Robb, J. R. Cheeseman, G. Scalmani, V. Barone, B. Mennucci, 
 G. A. Petersson, H. Nakatsuji, M. Caricato, X. Li, H. P. Hratchian, 
 A. F. Izmaylov, J. Bloino, G. Zheng, J. L. Sonnenberg, M. Hada, 
 M. Ehara, K. Toyota, R. Fukuda, J. Hasegawa, M. Ishida, T. Nakajima, 
 Y. Honda, O. Kitao, H. Nakai, T. Vreven, J. A. Montgomery, Jr., 
 J. E. Peralta, F. Ogliaro, M. Bearpark, J. J. Heyd, E. Brothers, 
 K. N. Kudin, V. N. Staroverov, R. Kobayashi, J. Normand, 
 K. Raghavachari, A. Rendell, J. C. Burant, S. S. Iyengar, J. Tomasi, 
 M. Cossi, N. Rega, J. M. Millam, M. Klene, J. E. Knox, J. B. Cross, 
 V. Bakken, C. Adamo, J. Jaramillo, R. Gomperts, R. E. Stratmann, 
 O. Yazyev, A. J. Austin, R. Cammi, C. Pomelli, J. W. Ochterski, 
 R. L. Martin, K. Morokuma, V. G. Zakrzewski, G. A. Voth, 
 P. Salvador, J. J. Dannenberg, S. Dapprich, A. D. Daniels, 
 O. Farkas, J. B. Foresman, J. V. Ortiz, J. Cioslowski, 
 and D. J. Fox, Gaussian, Inc., Wallingford CT, 2009.
 
 ******************************************
 Gaussian 09:  EM64L-G09RevA.02 11-Jun-2009
                14-Sep-2010 
 ******************************************
 %RWF=/scratch/Gau-12-ethanediol/,32GB
 %Nosave
 %Chk=12-ethanediol-opt-5-1-2-6-343.chk
 %Mem=389242KB
 %Nproc=1
 Will use up to    1 processors via shared memory.
 ----------------------------------
 #HF/6-31G* Opt=ModRed MaxDisk=32GB
 ----------------------------------
 1/18=120,19=15,38=1/1,3;
 2/9=110,12=2,17=6,18=5,40=1/2;
 3/5=1,6=6,7=1,11=9,16=1,25=1,30=1,71=1/1,2,3;
 4//1;
 5/5=2,38=5/2;
 6/7=2,8=2,9=2,10=2,28=1/1;
 7//1,2,3,16;
 1/18=20,19=15/3(2);
 2/9=110/2;
 99//99;
 2/9=110/2;
 3/5=1,6=6,7=1,11=9,16=1,25=1,30=1,71=1/1,2,3;
 4/5=5,16=3/1;
 5/5=2,38=5/2;
 7//1,2,3,16;
 1/18=20,19=15/3(-5);
 2/9=110/2;
 6/7=2,8=2,9=2,10=2,19=2,28=1/1;
 99/9=1/99;
 -----------------------------------------------------------------
 12-ethanediol Rotatable Bond Optimization on node9.bme.utexas.edu
 -----------------------------------------------------------------
 Symbolic Z-matrix:
 Charge =  0 Multiplicity = 1
 C                     0.05427   0.76901   0.62166 
 C                    -0.05427  -0.76901   0.62166 
 H                     0.00692   2.21644  -0.64057 
 H                    -0.00692  -2.21644  -0.64057 
 O                    -0.05427   1.27264  -0.67593 
 O                     0.05427  -1.27264  -0.67593 
 H                    -0.72085   1.17558   1.26784 
 H                     1.01187   1.05859   1.05025 
 H                     0.72085  -1.17558   1.26784 
 H                    -1.01187  -1.05859   1.05025 
 
 The following ModRedundant input section has been read:
 D    5    1    2    6 342.64 F                                                
 Iteration  1 RMS(Cart)=  0.02022396 RMS(Int)=  0.07451243
 Iteration  2 RMS(Cart)=  0.00753299 RMS(Int)=  0.07163142
 Iteration  3 RMS(Cart)=  0.00280092 RMS(Int)=  0.07072577
 Iteration  4 RMS(Cart)=  0.00104551 RMS(Int)=  0.07041251
 Iteration  5 RMS(Cart)=  0.00039041 RMS(Int)=  0.07029905
 Iteration  6 RMS(Cart)=  0.00014581 RMS(Int)=  0.07025717
 Iteration  7 RMS(Cart)=  0.00005446 RMS(Int)=  0.07024160
 Iteration  8 RMS(Cart)=  0.00002034 RMS(Int)=  0.07023580
 Iteration  9 RMS(Cart)=  0.00000760 RMS(Int)=  0.07023363
 Iteration 10 RMS(Cart)=  0.00000284 RMS(Int)=  0.07023282
 Iteration 11 RMS(Cart)=  0.00000106 RMS(Int)=  0.07023252
 Iteration 12 RMS(Cart)=  0.00000040 RMS(Int)=  0.07023241
 Iteration  1 RMS(Cart)=  0.02008171 RMS(Int)=  0.05577351
 Iteration  2 RMS(Cart)=  0.02008480 RMS(Int)=  0.05196871
 Iteration  3 RMS(Cart)=  0.02013775 RMS(Int)=  0.05545686
 Iteration  4 RMS(Cart)=  0.01831002 RMS(Int)=  0.06394996
 Iteration  5 RMS(Cart)=  0.01157306 RMS(Int)=  0.07108846
 Iteration  6 RMS(Cart)=  0.00730831 RMS(Int)=  0.07608062
 Iteration  7 RMS(Cart)=  0.00461059 RMS(Int)=  0.07937941
 Iteration  8 RMS(Cart)=  0.00290645 RMS(Int)=  0.08150931
 Iteration  9 RMS(Cart)=  0.00183120 RMS(Int)=  0.08286926
 Iteration 10 RMS(Cart)=  0.00115333 RMS(Int)=  0.08373249
 Iteration 11 RMS(Cart)=  0.00072623 RMS(Int)=  0.08427858
 Iteration 12 RMS(Cart)=  0.00045722 RMS(Int)=  0.08462338
 Iteration 13 RMS(Cart)=  0.00028783 RMS(Int)=  0.08484082
 Iteration 14 RMS(Cart)=  0.00018119 RMS(Int)=  0.08497785
 Iteration 15 RMS(Cart)=  0.00011405 RMS(Int)=  0.08506416
 Iteration 16 RMS(Cart)=  0.00007179 RMS(Int)=  0.08511851
 Iteration 17 RMS(Cart)=  0.00004519 RMS(Int)=  0.08515273
 Iteration 18 RMS(Cart)=  0.00002844 RMS(Int)=  0.08517428
 Iteration 19 RMS(Cart)=  0.00001790 RMS(Int)=  0.08518784
 Iteration 20 RMS(Cart)=  0.00001127 RMS(Int)=  0.08519637
 Iteration 21 RMS(Cart)=  0.00000709 RMS(Int)=  0.08520175
 Iteration 22 RMS(Cart)=  0.00000446 RMS(Int)=  0.08520513
 Iteration 23 RMS(Cart)=  0.00000281 RMS(Int)=  0.08520726
 Iteration 24 RMS(Cart)=  0.00000177 RMS(Int)=  0.08520860
 Iteration 25 RMS(Cart)=  0.00000111 RMS(Int)=  0.08520944
 Iteration 26 RMS(Cart)=  0.00000070 RMS(Int)=  0.08520997

 GradGradGradGradGradGradGradGradGradGradGradGradGradGradGradGradGradGrad
 Berny optimization.
 Initialization pass.
                           ----------------------------
                           !    Initial Parameters    !
                           ! (Angstroms and Degrees)  !
 --------------------------                            --------------------------
 ! Name  Definition              Value          Derivative Info.                !
 --------------------------------------------------------------------------------
 ! R1    R(1,2)                  1.5432         estimate D2E/DX2                !
 ! R2    R(1,5)                  1.3985         estimate D2E/DX2                !
 ! R3    R(1,7)                  1.0882         estimate D2E/DX2                !
 ! R4    R(1,8)                  1.0886         estimate D2E/DX2                !
 ! R5    R(2,6)                  1.3985         estimate D2E/DX2                !
 ! R6    R(2,9)                  1.0882         estimate D2E/DX2                !
 ! R7    R(2,10)                 1.0886         estimate D2E/DX2                !
 ! R8    R(3,5)                  0.9465         estimate D2E/DX2                !
 ! R9    R(4,6)                  0.9465         estimate D2E/DX2                !
 ! A1    A(2,1,5)              110.5167         estimate D2E/DX2                !
 ! A2    A(2,1,7)              111.1104         estimate D2E/DX2                !
 ! A3    A(2,1,8)              106.1356         estimate D2E/DX2                !
 ! A4    A(5,1,7)              121.8278         estimate D2E/DX2                !
 ! A5    A(5,1,8)               98.007          estimate D2E/DX2                !
 ! A6    A(7,1,8)              107.2944         estimate D2E/DX2                !
 ! A7    A(1,2,6)              110.5167         estimate D2E/DX2                !
 ! A8    A(1,2,9)              111.1104         estimate D2E/DX2                !
 ! A9    A(1,2,10)             106.1356         estimate D2E/DX2                !
 ! A10   A(6,2,9)              121.8278         estimate D2E/DX2                !
 ! A11   A(6,2,10)              98.007          estimate D2E/DX2                !
 ! A12   A(9,2,10)             107.2944         estimate D2E/DX2                !
 ! A13   A(1,5,3)              108.5998         estimate D2E/DX2                !
 ! A14   A(2,6,4)              108.5998         estimate D2E/DX2                !
 ! D1    D(5,1,2,6)            -17.3598         Frozen                          !
 ! D2    D(5,1,2,9)            121.0637         estimate D2E/DX2                !
 ! D3    D(5,1,2,10)          -122.6134         estimate D2E/DX2                !
 ! D4    D(7,1,2,6)            121.0637         estimate D2E/DX2                !
 ! D5    D(7,1,2,9)           -100.5129         estimate D2E/DX2                !
 ! D6    D(7,1,2,10)            15.8101         estimate D2E/DX2                !
 ! D7    D(8,1,2,6)           -122.6134         estimate D2E/DX2                !
 ! D8    D(8,1,2,9)             15.8101         estimate D2E/DX2                !
 ! D9    D(8,1,2,10)           132.133          estimate D2E/DX2                !
 ! D10   D(2,1,5,3)           -173.2582         estimate D2E/DX2                !
 ! D11   D(7,1,5,3)             53.5147         estimate D2E/DX2                !
 ! D12   D(8,1,5,3)            -62.6305         estimate D2E/DX2                !
 ! D13   D(1,2,6,4)           -173.2582         estimate D2E/DX2                !
 ! D14   D(9,2,6,4)             53.5147         estimate D2E/DX2                !
 ! D15   D(10,2,6,4)           -62.6305         estimate D2E/DX2                !
 --------------------------------------------------------------------------------
 Trust Radius=3.00D-01 FncErr=1.00D-07 GrdErr=1.00D-07
 Number of steps in this run=  48 maximum allowed number of steps= 100.
 GradGradGradGradGradGradGradGradGradGradGradGradGradGradGradGradGradGrad

                          Input orientation:                          
 ---------------------------------------------------------------------
 Center     Atomic      Atomic             Coordinates (Angstroms)
 Number     Number       Type             X           Y           Z
 ---------------------------------------------------------------------
      1          6           0       -0.052890    0.769770    0.618894
      2          6           0        0.052890   -0.769770    0.618894
      3          1           0        0.145684    2.217066   -0.630842
      4          1           0       -0.145684   -2.217066   -0.630842
      5          8           0        0.110710    1.272308   -0.675883
      6          8           0       -0.110710   -1.272308   -0.675883
      7          1           0       -0.858496    1.107273    1.267944
      8          1           0        0.879960    1.137125    1.043131
      9          1           0        0.858496   -1.107273    1.267944
     10          1           0       -0.879960   -1.137125    1.043131
 ---------------------------------------------------------------------
                    Distance matrix (angstroms):
                    1          2          3          4          5
     1  C    0.000000
     2  C    1.543170   0.000000
     3  H    1.922482   3.239080   0.000000
     4  H    3.239080   1.922482   4.443695   0.000000
     5  O    1.398484   2.418651   0.946478   3.499071   0.000000
     6  O    2.418651   1.398484   3.499071   0.946478   2.554231
     7  H    1.088198   2.185219   2.417727   3.894191   2.178316
     8  H    1.088639   2.121384   2.123116   3.886480   1.888129
     9  H    2.185219   1.088198   3.894191   2.417727   3.162286
    10  H    2.121383   1.088639   3.886480   2.123116   3.121186
                    6          7          8          9         10
     6  O    0.000000
     7  H    3.162286   0.000000
     8  H    3.121186   1.753186   0.000000
     9  H    2.178316   2.802192   2.255731   0.000000
    10  H    1.888129   2.255731   2.875678   1.753186   0.000000
 Stoichiometry    C2H6O2
 Framework group  C2[X(C2H6O2)]
 Deg. of freedom    13
 Full point group                 C2      NOp   2
 Largest Abelian subgroup         C2      NOp   2
 Largest concise Abelian subgroup C2      NOp   2
                         Standard orientation:                         
 ---------------------------------------------------------------------
 Center     Atomic      Atomic             Coordinates (Angstroms)
 Number     Number       Type             X           Y           Z
 ---------------------------------------------------------------------
      1          6           0       -0.288581    0.715587    0.619686
      2          6           0        0.288581   -0.715587    0.619686
      3          1           0       -0.547782    2.153263   -0.630050
      4          1           0        0.547782   -2.153263   -0.630050
      5          8           0       -0.288581    1.244084   -0.675091
      6          8           0        0.288581   -1.244084   -0.675091
      7          1           0       -1.159093    0.787131    1.268736
      8          1           0        0.484731    1.353668    1.043923
      9          1           0        1.159093   -0.787131    1.268736
     10          1           0       -0.484731   -1.353668    1.043923
 ---------------------------------------------------------------------
 Rotational constants (GHZ):     15.2358603      5.9780669      4.5495069
 Standard basis: 6-31G(d) (6D, 7F)
 There are    36 symmetry adapted basis functions of A   symmetry.
 There are    36 symmetry adapted basis functions of B   symmetry.
 Integral buffers will be    131072 words long.
 Raffenetti 1 integral format.
 Two-electron integral symmetry is turned on.
    72 basis functions,   136 primitive gaussians,    72 cartesian basis functions
    17 alpha electrons       17 beta electrons
       nuclear repulsion energy       133.9370987213 Hartrees.
 NAtoms=   10 NActive=   10 NUniq=    5 SFac= 3.00D+00 NAtFMM=   80 NAOKFM=F Big=F
 One-electron integrals computed using PRISM.
 NBasis=    72 RedAO= T  NBF=    36    36
 NBsUse=    72 1.00D-06 NBFU=    36    36
 Harris functional with IExCor=  205 diagonalized for initial guess.
 ExpMin= 1.61D-01 ExpMax= 5.48D+03 ExpMxC= 8.25D+02 IAcc=1 IRadAn=         1 AccDes= 0.00D+00
 HarFok:  IExCor=  205 AccDes= 0.00D+00 IRadAn=         1 IDoV= 1
 ScaDFX=  1.000000  1.000000  1.000000  1.000000
 FoFCou: FMM=F IPFlag=           0 FMFlag=      100000 FMFlg1=           0
         NFxFlg=           0 DoJE=T BraDBF=F KetDBF=T FulRan=T
         Omega=  0.000000  0.000000  1.000000  0.000000  0.000000 ICntrl=     500 IOpCl=  0
         NMat0=    1 NMatS0=    1 NMatT0=    0 NMatD0=    1 NMtDS0=    0 NMtDT0=    0
         I1Cent=           4 NGrid=           0.
 Petite list used in FoFCou.
 Initial guess orbital symmetries:
       Occupied  (B) (A) (A) (B) (A) (B) (A) (B) (A) (B) (B) (A)
                 (A) (B) (A) (B) (A)
       Virtual   (A) (B) (A) (B) (A) (B) (B) (A) (B) (A) (B) (A)
                 (B) (B) (A) (A) (A) (B) (B) (A) (A) (B) (B) (A)
                 (B) (A) (A) (B) (B) (A) (B) (A) (B) (A) (B) (A)
                 (B) (A) (A) (B) (A) (B) (B) (A) (B) (A) (A) (B)
                 (B) (A) (B) (A) (B) (A) (B)
 The electronic state of the initial guess is 1-A.
 Requested convergence on RMS density matrix=1.00D-08 within 128 cycles.
 Requested convergence on MAX density matrix=1.00D-06.
 Requested convergence on             energy=1.00D-06.
 No special actions if energy rises.
 Keep R1 ints in memory in canonical form, NReq=4309302.
 SCF Done:  E(RHF) =  -228.881640800     A.U. after   12 cycles
             Convg  =    0.2327D-08             -V/T =  2.0013

 **********************************************************************

            Population analysis using the SCF density.

 **********************************************************************

 Orbital symmetries:
       Occupied  (B) (A) (A) (B) (A) (B) (A) (B) (A) (B) (B) (A)
                 (A) (B) (A) (B) (A)
       Virtual   (A) (B) (A) (B) (B) (A) (A) (B) (B) (A) (B) (A)
                 (B) (B) (A) (A) (A) (B) (A) (B) (A) (B) (B) (A)
                 (B) (A) (A) (B) (B) (A) (B) (A) (B) (A) (B) (B)
                 (A) (A) (B) (A) (A) (B) (B) (A) (B) (A) (A) (B)
                 (B) (A) (B) (A) (B) (A) (B)
 The electronic state is 1-A.
 Alpha  occ. eigenvalues --  -20.54916 -20.54916 -11.27236 -11.27180  -1.37121
 Alpha  occ. eigenvalues --   -1.34675  -0.99422  -0.82996  -0.72571  -0.67141
 Alpha  occ. eigenvalues --   -0.64581  -0.59726  -0.57607  -0.51029  -0.47575
 Alpha  occ. eigenvalues --   -0.44861  -0.40515
 Alpha virt. eigenvalues --    0.20687   0.25376   0.26807   0.27679   0.33574
 Alpha virt. eigenvalues --    0.34329   0.39998   0.41974   0.49675   0.76261
 Alpha virt. eigenvalues --    0.79171   0.80600   0.83914   0.90300   0.96162
 Alpha virt. eigenvalues --    1.00994   1.08859   1.10259   1.13428   1.13663
 Alpha virt. eigenvalues --    1.19699   1.21506   1.23266   1.26348   1.29330
 Alpha virt. eigenvalues --    1.34372   1.40657   1.53315   1.62682   1.68503
 Alpha virt. eigenvalues --    1.76409   1.77870   1.98205   2.03784   2.03925
 Alpha virt. eigenvalues --    2.09878   2.13609   2.17316   2.34240   2.36097
 Alpha virt. eigenvalues --    2.50145   2.54913   2.65905   2.69879   2.75034
 Alpha virt. eigenvalues --    2.79764   2.88366   2.90349   3.08812   3.16573
 Alpha virt. eigenvalues --    3.27847   4.09826   4.34918   4.60028   4.87725
          Condensed to atoms (all electrons):
              1          2          3          4          5          6
     1  C    4.817413   0.330706  -0.023584   0.006033   0.211375  -0.042846
     2  C    0.330706   4.817413   0.006033  -0.023584  -0.042846   0.211375
     3  H   -0.023584   0.006033   0.326731   0.000013   0.262476  -0.000050
     4  H    0.006033  -0.023584   0.000013   0.326731  -0.000050   0.262476
     5  O    0.211375  -0.042846   0.262476  -0.000050   8.369298  -0.002948
     6  O   -0.042846   0.211375  -0.000050   0.262476  -0.002948   8.369298
     7  H    0.386752  -0.044021  -0.003054  -0.000138  -0.024123   0.001601
     8  H    0.423101  -0.053361  -0.005176  -0.000187  -0.063147   0.002169
     9  H   -0.044021   0.386752  -0.000138  -0.003054   0.001601  -0.024123
    10  H   -0.053361   0.423101  -0.000187  -0.005176   0.002169  -0.063147
              7          8          9         10
     1  C    0.386752   0.423101  -0.044021  -0.053361
     2  C   -0.044021  -0.053361   0.386752   0.423101
     3  H   -0.003054  -0.005176  -0.000138  -0.000187
     4  H   -0.000138  -0.000187  -0.003054  -0.005176
     5  O   -0.024123  -0.063147   0.001601   0.002169
     6  O    0.001601   0.002169  -0.024123  -0.063147
     7  H    0.581530  -0.049061   0.004336  -0.006674
     8  H   -0.049061   0.611878  -0.006674   0.004871
     9  H    0.004336  -0.006674   0.581530  -0.049061
    10  H   -0.006674   0.004871  -0.049061   0.611878
 Mulliken atomic charges:
              1
     1  C   -0.011568
     2  C   -0.011568
     3  H    0.436936
     4  H    0.436936
     5  O   -0.713806
     6  O   -0.713806
     7  H    0.152851
     8  H    0.135587
     9  H    0.152851
    10  H    0.135587
 Sum of Mulliken atomic charges =   0.00000
 Mulliken charges with hydrogens summed into heavy atoms:
              1
     1  C    0.276870
     2  C    0.276870
     5  O   -0.276870
     6  O   -0.276870
 Sum of Mulliken charges with hydrogens summed into heavy atoms =   0.00000
 Electronic spatial extent (au):  <R**2>=            297.1213
 Charge=              0.0000 electrons
 Dipole moment (field-independent basis, Debye):
    X=              0.0000    Y=              0.0000    Z=              2.7721  Tot=              2.7721
 Quadrupole moment (field-independent basis, Debye-Ang):
   XX=            -24.4755   YY=            -15.6289   ZZ=            -26.8275
   XY=             -2.9152   XZ=              0.0000   YZ=              0.0000
 Traceless Quadrupole moment (field-independent basis, Debye-Ang):
   XX=             -2.1649   YY=              6.6817   ZZ=             -4.5168
   XY=             -2.9152   XZ=              0.0000   YZ=              0.0000
 Octapole moment (field-independent basis, Debye-Ang**2):
  XXX=              0.0000  YYY=              0.0000  ZZZ=             -2.9615  XYY=              0.0000
  XXY=              0.0000  XXZ=             -0.6047  XZZ=              0.0000  YZZ=              0.0000
  YYZ=             -6.6074  XYZ=              0.9692
 Hexadecapole moment (field-independent basis, Debye-Ang**3):
 XXXX=            -48.0461 YYYY=           -129.2961 ZZZZ=           -103.9199 XXXY=             21.4643
 XXXZ=              0.0000 YYYX=              3.2209 YYYZ=              0.0000 ZZZX=              0.0000
 ZZZY=              0.0000 XXYY=            -37.3072 XXZZ=            -24.3132 YYZZ=            -49.1839
 XXYZ=              0.0000 YYXZ=              0.0000 ZZXY=              6.2517
 N-N= 1.339370987213D+02 E-N=-8.077293006536D+02  KE= 2.285731879351D+02
 Symmetry A    KE= 1.154141582094D+02
 Symmetry B    KE= 1.131590297257D+02
 Calling FoFJK, ICntrl=      2127 FMM=F ISym2X=1 I1Cent= 0 IOpClX= 0 NMat=1 NMatS=1 NMatT=0.
 ***** Axes restored to original set *****
 -------------------------------------------------------------------
 Center     Atomic                   Forces (Hartrees/Bohr)
 Number     Number              X              Y              Z
 -------------------------------------------------------------------
      1        6           0.066521851   -0.000410078    0.003730317
      2        6          -0.066521851    0.000410078    0.003730314
      3        1          -0.000266543   -0.000103222   -0.000171790
      4        1           0.000266543    0.000103222   -0.000171790
      5        8          -0.032423544    0.002195172   -0.011755253
      6        8           0.032423545   -0.002195172   -0.011755252
      7        1          -0.008329666    0.004390939   -0.017417250
      8        1          -0.006256334   -0.003925948    0.025613976
      9        1           0.008329667   -0.004390939   -0.017417249
     10        1           0.006256333    0.003925948    0.025613977
 -------------------------------------------------------------------
 Cartesian Forces:  Max     0.066521851 RMS     0.021191661

 GradGradGradGradGradGradGradGradGradGradGradGradGradGradGradGradGradGrad
 Berny optimization.
 Internal  Forces:  Max     0.031397175 RMS     0.010788276
 Search for a local minimum.
 Step number   1 out of a maximum of   48
 All quantities printed in internal units (Hartrees-Bohrs-Radians)
 Mixed Optimization -- RFO/linear search
 Second derivative matrix not updated -- first step.
     Eigenvalues ---    0.01575   0.01712   0.01712   0.04302   0.05937
     Eigenvalues ---    0.06371   0.11513   0.11518   0.13768   0.14080
     Eigenvalues ---    0.16000   0.16000   0.21991   0.21995   0.28240
     Eigenvalues ---    0.34970   0.34970   0.35022   0.35022   0.45873
     Eigenvalues ---    0.45873   0.58487   0.584871000.000001000.00000
     Eigenvalues --- 1000.000001000.000001000.000001000.000001000.00000
     Eigenvalues --- 1000.000001000.000001000.000001000.000001000.00000
     Eigenvalues --- 1000.000001000.000001000.00000
 RFO step:  Lambda=-2.81897511D-02 EMin= 1.57502201D-02
 Linear search not attempted -- first point.
 Maximum step size (   0.300) exceeded in Quadratic search.
    -- Step size scaled by   0.396
 Iteration  1 RMS(Cart)=  0.03758813 RMS(Int)=  0.00121943
 Iteration  2 RMS(Cart)=  0.00120992 RMS(Int)=  0.00029477
 Iteration  3 RMS(Cart)=  0.00000057 RMS(Int)=  0.00029477
 Iteration  1 RMS(Cart)=  0.00000824 RMS(Int)=  0.00001026
 Iteration  2 RMS(Cart)=  0.00000518 RMS(Int)=  0.00001139
 Iteration  3 RMS(Cart)=  0.00000325 RMS(Int)=  0.00001305
 Iteration  4 RMS(Cart)=  0.00000204 RMS(Int)=  0.00001434
 Iteration  5 RMS(Cart)=  0.00000128 RMS(Int)=  0.00001523
 Iteration  6 RMS(Cart)=  0.00000081 RMS(Int)=  0.00001581
 ClnCor:  largest displacement from symmetrization is 4.45D-11 for atom     9.
 Variable       Old X    -DE/DX   Delta X   Delta X   Delta X     New X
                                 (Linear)    (Quad)   (Total)
    R1        2.91617   0.00082   0.00000   0.00105   0.00105   2.91722
    R2        2.64275   0.00797   0.00000   0.00648   0.00648   2.64923
    R3        2.05640  -0.00286   0.00000  -0.00299  -0.00299   2.05340
    R4        2.05723   0.00330   0.00000   0.00345   0.00345   2.06068
    R5        2.64275   0.00797   0.00000   0.00648   0.00648   2.64923
    R6        2.05640  -0.00286   0.00000  -0.00299  -0.00299   2.05340
    R7        2.05723   0.00330   0.00000   0.00345   0.00345   2.06068
    R8        1.78858  -0.00012   0.00000  -0.00008  -0.00008   1.78851
    R9        1.78858  -0.00012   0.00000  -0.00008  -0.00008   1.78851
    A1        1.92888   0.00149   0.00000   0.00163   0.00116   1.93004
    A2        1.93924   0.00391   0.00000   0.00047  -0.00005   1.93919
    A3        1.85242  -0.00242   0.00000   0.00002  -0.00033   1.85208
    A4        2.12630  -0.01899   0.00000  -0.04141  -0.04150   2.08479
    A5        1.71055   0.02254   0.00000   0.05736   0.05737   1.76791
    A6        1.87264  -0.00284   0.00000  -0.00655  -0.00615   1.86649
    A7        1.92888   0.00149   0.00000   0.00163   0.00116   1.93004
    A8        1.93924   0.00391   0.00000   0.00047  -0.00005   1.93919
    A9        1.85242  -0.00242   0.00000   0.00002  -0.00033   1.85208
   A10        2.12630  -0.01899   0.00000  -0.04141  -0.04150   2.08479
   A11        1.71055   0.02254   0.00000   0.05736   0.05737   1.76791
   A12        1.87264  -0.00284   0.00000  -0.00655  -0.00615   1.86649
   A13        1.89542   0.00024   0.00000   0.00051   0.00051   1.89594
   A14        1.89542   0.00024   0.00000   0.00051   0.00051   1.89594
    D1       -0.30298   0.03140   0.00000   0.00000   0.00000  -0.30298
    D2        2.11296   0.00897   0.00000  -0.05858  -0.05859   2.05437
    D3       -2.14001   0.00621   0.00000  -0.06611  -0.06612  -2.20613
    D4        2.11296   0.00897   0.00000  -0.05858  -0.05859   2.05437
    D5       -1.75428  -0.01345   0.00000  -0.11715  -0.11719  -1.87148
    D6        0.27594  -0.01621   0.00000  -0.12468  -0.12472   0.15122
    D7       -2.14001   0.00621   0.00000  -0.06611  -0.06612  -2.20613
    D8        0.27594  -0.01621   0.00000  -0.12468  -0.12472   0.15122
    D9        2.30616  -0.01898   0.00000  -0.13222  -0.13225   2.17391
   D10       -3.02393  -0.00706   0.00000  -0.02444  -0.02432  -3.04824
   D11        0.93401   0.00569   0.00000   0.01827   0.01756   0.95157
   D12       -1.09311   0.00090   0.00000   0.00203   0.00262  -1.09049
   D13       -3.02393  -0.00706   0.00000  -0.02444  -0.02432  -3.04824
   D14        0.93401   0.00569   0.00000   0.01827   0.01756   0.95157
   D15       -1.09311   0.00090   0.00000   0.00203   0.00262  -1.09049
         Item               Value     Threshold  Converged?
 Maximum Force            0.017804     0.000450     NO 
 RMS     Force            0.006902     0.000300     NO 
 Maximum Displacement     0.116095     0.001800     NO 
 RMS     Displacement     0.037595     0.001200     NO 
 Predicted change in Energy=-1.021113D-02
 GradGradGradGradGradGradGradGradGradGradGradGradGradGradGradGradGradGrad

                          Input orientation:                          
 ---------------------------------------------------------------------
 Center     Atomic      Atomic             Coordinates (Angstroms)
 Number     Number       Type             X           Y           Z
 ---------------------------------------------------------------------
      1          6           0       -0.044590    0.770573    0.617236
      2          6           0        0.044590   -0.770573    0.617236
      3          1           0        0.148084    2.219215   -0.636998
      4          1           0       -0.148084   -2.219215   -0.636998
      5          8           0        0.124666    1.274054   -0.680154
      6          8           0       -0.124666   -1.274054   -0.680154
      7          1           0       -0.881907    1.114084    1.218594
      8          1           0        0.863735    1.126344    1.104566
      9          1           0        0.881907   -1.114084    1.218594
     10          1           0       -0.863735   -1.126344    1.104566
 ---------------------------------------------------------------------
                    Distance matrix (angstroms):
                    1          2          3          4          5
     1  C    0.000000
     2  C    1.543725   0.000000
     3  H    1.925822   3.243863   0.000000
     4  H    3.243863   1.925822   4.448301   0.000000
     5  O    1.401913   2.422836   0.946436   3.504167   0.000000
     6  O    2.422836   1.401913   3.504167   0.946436   2.560277
     7  H    1.086615   2.184482   2.392784   3.884920   2.155000
     8  H    1.090467   2.122919   2.177055   3.905072   1.937335
     9  H    2.184482   1.086615   3.884920   2.392784   3.143543
    10  H    2.122919   1.090467   3.905072   2.177055   3.150249
                    6          7          8          9         10
     6  O    0.000000
     7  H    3.143543   0.000000
     8  H    3.150249   1.749405   0.000000
     9  H    2.155000   2.841791   2.243402   0.000000
    10  H    1.937335   2.243402   2.838795   1.749405   0.000000
 Stoichiometry    C2H6O2
 Framework group  C2[X(C2H6O2)]
 Deg. of freedom    13
 Full point group                 C2      NOp   2
 Largest Abelian subgroup         C2      NOp   2
 Largest concise Abelian subgroup C2      NOp   2
                         Standard orientation:                         
 ---------------------------------------------------------------------
 Center     Atomic      Atomic             Coordinates (Angstroms)
 Number     Number       Type             X           Y           Z
 ---------------------------------------------------------------------
      1          6           0       -0.074712    0.768238    0.620275
      2          6           0        0.074712   -0.768238    0.620275
      3          1           0        0.061124    2.223310   -0.633959
      4          1           0       -0.061124   -2.223310   -0.633959
      5          8           0        0.074712    1.277956   -0.677116
      6          8           0       -0.074712   -1.277956   -0.677116
      7          1           0       -0.924830    1.078718    1.221633
      8          1           0        0.818995    1.159283    1.107604
      9          1           0        0.924830   -1.078718    1.221633
     10          1           0       -0.818995   -1.159283    1.107604
 ---------------------------------------------------------------------
 Rotational constants (GHZ):     15.1483269      5.9580083      4.5333033
 Standard basis: 6-31G(d) (6D, 7F)
 There are    36 symmetry adapted basis functions of A   symmetry.
 There are    36 symmetry adapted basis functions of B   symmetry.
 Integral buffers will be    131072 words long.
 Raffenetti 1 integral format.
 Two-electron integral symmetry is turned on.
    72 basis functions,   136 primitive gaussians,    72 cartesian basis functions
    17 alpha electrons       17 beta electrons
       nuclear repulsion energy       133.6761985937 Hartrees.
 NAtoms=   10 NActive=   10 NUniq=    5 SFac= 3.00D+00 NAtFMM=   80 NAOKFM=F Big=F
 One-electron integrals computed using PRISM.
 NBasis=    72 RedAO= T  NBF=    36    36
 NBsUse=    72 1.00D-06 NBFU=    36    36
 Initial guess read from the read-write file.
 B after Tr=     0.000000    0.000000    0.000000
         Rot=    1.000000    0.000000    0.000000    0.000000 Ang=   0.00 deg.
 Initial guess orbital symmetries:
       Occupied  (B) (A) (A) (B) (A) (B) (A) (B) (A) (B) (B) (A)
                 (A) (B) (A) (B) (A)
       Virtual   (A) (B) (A) (B) (B) (A) (A) (B) (B) (A) (B) (A)
                 (B) (B) (A) (A) (A) (B) (A) (B) (A) (B) (B) (A)
                 (B) (A) (A) (B) (B) (A) (B) (A) (B) (A) (B) (B)
                 (A) (A) (B) (A) (A) (B) (B) (A) (B) (A) (A) (B)
                 (B) (A) (B) (A) (B) (A) (B)
 Harris functional with IExCor=  205 diagonalized for initial guess.
 ExpMin= 1.61D-01 ExpMax= 5.48D+03 ExpMxC= 8.25D+02 IAcc=1 IRadAn=         1 AccDes= 0.00D+00
 HarFok:  IExCor=  205 AccDes= 0.00D+00 IRadAn=         1 IDoV= 1
 ScaDFX=  1.000000  1.000000  1.000000  1.000000
 FoFCou: FMM=F IPFlag=           0 FMFlag=      100000 FMFlg1=           0
         NFxFlg=           0 DoJE=T BraDBF=F KetDBF=T FulRan=T
         Omega=  0.000000  0.000000  1.000000  0.000000  0.000000 ICntrl=     500 IOpCl=  0
         NMat0=    1 NMatS0=    1 NMatT0=    0 NMatD0=    1 NMtDS0=    0 NMtDT0=    0
         I1Cent=           4 NGrid=           0.
 Petite list used in FoFCou.
 Requested convergence on RMS density matrix=1.00D-08 within 128 cycles.
 Requested convergence on MAX density matrix=1.00D-06.
 Requested convergence on             energy=1.00D-06.
 No special actions if energy rises.
 Keep R1 ints in memory in canonical form, NReq=4309302.
 SCF Done:  E(RHF) =  -228.891413598     A.U. after   12 cycles
             Convg  =    0.9771D-08             -V/T =  2.0015
 Calling FoFJK, ICntrl=      2127 FMM=F ISym2X=1 I1Cent= 0 IOpClX= 0 NMat=1 NMatS=1 NMatT=0.
 ***** Axes restored to original set *****
 -------------------------------------------------------------------
 Center     Atomic                   Forces (Hartrees/Bohr)
 Number     Number              X              Y              Z
 -------------------------------------------------------------------
      1        6           0.054966609    0.000100981    0.001460093
      2        6          -0.054966609   -0.000100981    0.001460091
      3        1          -0.000171199    0.000051987    0.000058325
      4        1           0.000171199   -0.000051987    0.000058325
      5        8          -0.024233623    0.000100439   -0.003866334
      6        8           0.024233623   -0.000100439   -0.003866333
      7        1          -0.007122339    0.003303173   -0.014665360
      8        1          -0.006927769   -0.002014081    0.017013276
      9        1           0.007122340   -0.003303173   -0.014665359
     10        1           0.006927768    0.002014081    0.017013276
 -------------------------------------------------------------------
 Cartesian Forces:  Max     0.054966609 RMS     0.016820516

 GradGradGradGradGradGradGradGradGradGradGradGradGradGradGradGradGradGrad
 Berny optimization.
 Using GEDIIS/GDIIS optimizer.
 Internal  Forces:  Max     0.023233354 RMS     0.007830183
 Search for a local minimum.
 Step number   2 out of a maximum of   48
 All quantities printed in internal units (Hartrees-Bohrs-Radians)
 Mixed Optimization -- RFO/linear search
 Update second derivatives using D2CorX and points    1    2
 DE= -9.77D-03 DEPred=-1.02D-02 R= 9.57D-01
 SS=  1.41D+00  RLast= 3.00D-01 DXNew= 5.0454D-01 8.9995D-01
 Trust test= 9.57D-01 RLast= 3.00D-01 DXMaxT set to 5.05D-01
 Use linear search instead of GDIIS.
 Linear search step of   0.592 exceeds DXMaxT=   0.505 but not scaled.
 Quartic linear search produced a step of  2.00000.
 Iteration  1 RMS(Cart)=  0.06543998 RMS(Int)=  0.01457293
 Iteration  2 RMS(Cart)=  0.01094578 RMS(Int)=  0.00172120
 Iteration  3 RMS(Cart)=  0.00012085 RMS(Int)=  0.00171705
 Iteration  4 RMS(Cart)=  0.00000006 RMS(Int)=  0.00171705
 Iteration  1 RMS(Cart)=  0.00001328 RMS(Int)=  0.00001647
 Iteration  2 RMS(Cart)=  0.00000833 RMS(Int)=  0.00001829
 Iteration  3 RMS(Cart)=  0.00000523 RMS(Int)=  0.00002095
 Iteration  4 RMS(Cart)=  0.00000328 RMS(Int)=  0.00002302
 Iteration  5 RMS(Cart)=  0.00000206 RMS(Int)=  0.00002444
 Iteration  6 RMS(Cart)=  0.00000129 RMS(Int)=  0.00002536
 Iteration  7 RMS(Cart)=  0.00000081 RMS(Int)=  0.00002596
 ClnCor:  largest displacement from symmetrization is 1.02D-10 for atom     4.
 Variable       Old X    -DE/DX   Delta X   Delta X   Delta X     New X
                                 (Linear)    (Quad)   (Total)
    R1        2.91722   0.00059   0.00210   0.00000   0.00210   2.91931
    R2        2.64923   0.00063   0.01296   0.00000   0.01296   2.66219
    R3        2.05340  -0.00158  -0.00598   0.00000  -0.00598   2.04742
    R4        2.06068   0.00118   0.00691   0.00000   0.00691   2.06759
    R5        2.64923   0.00063   0.01296   0.00000   0.01296   2.66219
    R6        2.05340  -0.00158  -0.00598   0.00000  -0.00598   2.04742
    R7        2.06068   0.00118   0.00691   0.00000   0.00691   2.06759
    R8        1.78851   0.00005  -0.00016   0.00000  -0.00016   1.78835
    R9        1.78851   0.00005  -0.00016   0.00000  -0.00016   1.78835
    A1        1.93004   0.00128   0.00231   0.00000  -0.00052   1.92952
    A2        1.93919   0.00235  -0.00010   0.00000  -0.00312   1.93607
    A3        1.85208  -0.00007  -0.00067   0.00000  -0.00282   1.84926
    A4        2.08479  -0.01480  -0.08301   0.00000  -0.08360   2.00119
    A5        1.76791   0.01537   0.11474   0.00000   0.11481   1.88273
    A6        1.86649  -0.00156  -0.01231   0.00000  -0.01007   1.85641
    A7        1.93004   0.00128   0.00231   0.00000  -0.00052   1.92952
    A8        1.93919   0.00235  -0.00010   0.00000  -0.00312   1.93607
    A9        1.85208  -0.00007  -0.00067   0.00000  -0.00282   1.84926
   A10        2.08479  -0.01480  -0.08301   0.00000  -0.08360   2.00119
   A11        1.76791   0.01537   0.11474   0.00000   0.11481   1.88273
   A12        1.86649  -0.00156  -0.01231   0.00000  -0.01007   1.85641
   A13        1.89594  -0.00014   0.00103   0.00000   0.00103   1.89696
   A14        1.89594  -0.00014   0.00103   0.00000   0.00103   1.89696
    D1       -0.30298   0.02323   0.00001   0.00000   0.00000  -0.30298
    D2        2.05437   0.00569  -0.11719   0.00000  -0.11721   1.93715
    D3       -2.20613   0.00499  -0.13224   0.00000  -0.13228  -2.33840
    D4        2.05437   0.00569  -0.11719   0.00000  -0.11721   1.93715
    D5       -1.87148  -0.01186  -0.23439   0.00000  -0.23443  -2.10590
    D6        0.15122  -0.01256  -0.24944   0.00000  -0.24949  -0.09827
    D7       -2.20613   0.00499  -0.13224   0.00000  -0.13228  -2.33840
    D8        0.15122  -0.01256  -0.24944   0.00000  -0.24949  -0.09827
    D9        2.17391  -0.01326  -0.26449   0.00000  -0.26455   1.90936
   D10       -3.04824  -0.00593  -0.04863   0.00000  -0.04808  -3.09632
   D11        0.95157   0.00371   0.03512   0.00000   0.03107   0.98264
   D12       -1.09049   0.00194   0.00524   0.00000   0.00874  -1.08174
   D13       -3.04824  -0.00593  -0.04863   0.00000  -0.04808  -3.09632
   D14        0.95157   0.00371   0.03512   0.00000   0.03107   0.98264
   D15       -1.09049   0.00194   0.00524   0.00000   0.00874  -1.08174
         Item               Value     Threshold  Converged?
 Maximum Force            0.012357     0.000450     NO 
 RMS     Force            0.004870     0.000300     NO 
 Maximum Displacement     0.227836     0.001800     NO 
 RMS     Displacement     0.075276     0.001200     NO 
 Predicted change in Energy=-1.138459D-02
 GradGradGradGradGradGradGradGradGradGradGradGradGradGradGradGradGradGrad

                          Input orientation:                          
 ---------------------------------------------------------------------
 Center     Atomic      Atomic             Coordinates (Angstroms)
 Number     Number       Type             X           Y           Z
 ---------------------------------------------------------------------
      1          6           0       -0.028015    0.771909    0.617228
      2          6           0        0.028015   -0.771909    0.617228
      3          1           0        0.154189    2.219048   -0.650513
      4          1           0       -0.154189   -2.219048   -0.650513
      5          8           0        0.152983    1.273390   -0.686764
      6          8           0       -0.152983   -1.273390   -0.686764
      7          1           0       -0.920759    1.126780    1.118160
      8          1           0        0.819058    1.103606    1.225131
      9          1           0        0.920759   -1.126780    1.118161
     10          1           0       -0.819058   -1.103606    1.225131
 ---------------------------------------------------------------------
                    Distance matrix (angstroms):
                    1          2          3          4          5
     1  C    0.000000
     2  C    1.544834   0.000000
     3  H    1.932506   3.250986   0.000000
     4  H    3.250986   1.932506   4.448797   0.000000
     5  O    1.408772   2.428839   0.946354   3.506108   0.000000
     6  O    2.428839   1.408772   3.506108   0.946354   2.565093
     7  H    1.083448   2.180854   2.340250   3.861399   2.105271
     8  H    1.094121   2.124347   2.281294   3.937674   2.031705
     9  H    2.180854   1.083448   3.861399   2.340250   3.099685
    10  H    2.124347   1.094121   3.937674   2.281294   3.201611
                    6          7          8          9         10
     6  O    0.000000
     7  H    3.099685   0.000000
     8  H    3.201611   1.743257   0.000000
     9  H    2.105271   2.910279   2.235264   0.000000
    10  H    2.031705   2.235264   2.748673   1.743257   0.000000
 Stoichiometry    C2H6O2
 Framework group  C2[X(C2H6O2)]
 Deg. of freedom    13
 Full point group                 C2      NOp   2
 Largest Abelian subgroup         C2      NOp   2
 Largest concise Abelian subgroup C2      NOp   2
                         Standard orientation:                         
 ---------------------------------------------------------------------
 Center     Atomic      Atomic             Coordinates (Angstroms)
 Number     Number       Type             X           Y           Z
 ---------------------------------------------------------------------
      1          6           0       -0.075039    0.768764    0.622991
      2          6           0        0.075039   -0.768764    0.622991
      3          1           0        0.018571    2.224321   -0.644750
      4          1           0       -0.018571   -2.224321   -0.644750
      5          8           0        0.075039    1.280350   -0.681001
      6          8           0       -0.075039   -1.280350   -0.681001
      7          1           0       -0.987763    1.068529    1.123923
      8          1           0        0.750229    1.151502    1.230894
      9          1           0        0.987763   -1.068529    1.123923
     10          1           0       -0.750229   -1.151502    1.230894
 ---------------------------------------------------------------------
 Rotational constants (GHZ):     14.9537431      5.9464419      4.5123280
 Standard basis: 6-31G(d) (6D, 7F)
 There are    36 symmetry adapted basis functions of A   symmetry.
 There are    36 symmetry adapted basis functions of B   symmetry.
 Integral buffers will be    131072 words long.
 Raffenetti 1 integral format.
 Two-electron integral symmetry is turned on.
    72 basis functions,   136 primitive gaussians,    72 cartesian basis functions
    17 alpha electrons       17 beta electrons
       nuclear repulsion energy       133.2759544016 Hartrees.
 NAtoms=   10 NActive=   10 NUniq=    5 SFac= 3.00D+00 NAtFMM=   80 NAOKFM=F Big=F
 One-electron integrals computed using PRISM.
 NBasis=    72 RedAO= T  NBF=    36    36
 NBsUse=    72 1.00D-06 NBFU=    36    36
 Initial guess read from the read-write file.
 B after Tr=     0.000000    0.000000    0.000000
         Rot=    1.000000    0.000000    0.000000    0.000000 Ang=   0.00 deg.
 Initial guess orbital symmetries:
       Occupied  (B) (A) (A) (B) (A) (B) (A) (B) (A) (B) (B) (A)
                 (A) (B) (A) (B) (A)
       Virtual   (A) (B) (A) (B) (B) (A) (A) (B) (B) (A) (B) (A)
                 (B) (B) (A) (A) (A) (B) (A) (B) (A) (B) (B) (A)
                 (B) (A) (A) (B) (B) (A) (B) (A) (B) (A) (B) (B)
                 (A) (A) (B) (A) (A) (B) (B) (A) (B) (A) (A) (B)
                 (B) (A) (B) (A) (B) (A) (B)
 Harris functional with IExCor=  205 diagonalized for initial guess.
 ExpMin= 1.61D-01 ExpMax= 5.48D+03 ExpMxC= 8.25D+02 IAcc=1 IRadAn=         1 AccDes= 0.00D+00
 HarFok:  IExCor=  205 AccDes= 0.00D+00 IRadAn=         1 IDoV= 1
 ScaDFX=  1.000000  1.000000  1.000000  1.000000
 FoFCou: FMM=F IPFlag=           0 FMFlag=      100000 FMFlg1=           0
         NFxFlg=           0 DoJE=T BraDBF=F KetDBF=T FulRan=T
         Omega=  0.000000  0.000000  1.000000  0.000000  0.000000 ICntrl=     500 IOpCl=  0
         NMat0=    1 NMatS0=    1 NMatT0=    0 NMatD0=    1 NMtDS0=    0 NMtDT0=    0
         I1Cent=           4 NGrid=           0.
 Petite list used in FoFCou.
 Requested convergence on RMS density matrix=1.00D-08 within 128 cycles.
 Requested convergence on MAX density matrix=1.00D-06.
 Requested convergence on             energy=1.00D-06.
 No special actions if energy rises.
 Keep R1 ints in memory in canonical form, NReq=4309302.
 SCF Done:  E(RHF) =  -228.903097078     A.U. after   10 cycles
             Convg  =    0.9248D-08             -V/T =  2.0018
 Calling FoFJK, ICntrl=      2127 FMM=F ISym2X=1 I1Cent= 0 IOpClX= 0 NMat=1 NMatS=1 NMatT=0.
 ***** Axes restored to original set *****
 -------------------------------------------------------------------
 Center     Atomic                   Forces (Hartrees/Bohr)
 Number     Number              X              Y              Z
 -------------------------------------------------------------------
      1        6           0.031035469   -0.000977919   -0.003116473
      2        6          -0.031035469    0.000977919   -0.003116474
      3        1          -0.000024743    0.000369777    0.000426340
      4        1           0.000024743   -0.000369777    0.000426340
      5        8          -0.008810157   -0.002696507    0.008934717
      6        8           0.008810156    0.002696507    0.008934718
      7        1          -0.005716405    0.001217098   -0.008381315
      8        1          -0.005641592    0.001787943    0.002136731
      9        1           0.005716406   -0.001217098   -0.008381315
     10        1           0.005641592   -0.001787943    0.002136731
 -------------------------------------------------------------------
 Cartesian Forces:  Max     0.031035469 RMS     0.009248071

 GradGradGradGradGradGradGradGradGradGradGradGradGradGradGradGradGradGrad
 Berny optimization.
 Using GEDIIS/GDIIS optimizer.
 Internal  Forces:  Max     0.010628157 RMS     0.004099032
 Search for a local minimum.
 Step number   3 out of a maximum of   48
 All quantities printed in internal units (Hartrees-Bohrs-Radians)
 Mixed Optimization -- RFO/linear search
 Update second derivatives using D2CorX and points    2    3
 Use linear search instead of GDIIS.
     Eigenvalues ---    0.01711   0.01712   0.02042   0.04794   0.06145
     Eigenvalues ---    0.06282   0.11366   0.11489   0.13262   0.13908
     Eigenvalues ---    0.16000   0.16009   0.21992   0.22043   0.28251
     Eigenvalues ---    0.34970   0.35002   0.35022   0.35146   0.45873
     Eigenvalues ---    0.47537   0.58487   0.584891000.000001000.00000
     Eigenvalues --- 1000.000001000.000001000.000001000.000001000.00000
     Eigenvalues --- 1000.000001000.000001000.000001000.000001000.00000
     Eigenvalues --- 1000.000001000.000001000.00000
 RFO step:  Lambda=-5.48726968D-03 EMin= 1.71132301D-02
 Quartic linear search produced a step of  0.71300.
 Iteration  1 RMS(Cart)=  0.06572029 RMS(Int)=  0.02053134
 Iteration  2 RMS(Cart)=  0.01734983 RMS(Int)=  0.00232357
 Iteration  3 RMS(Cart)=  0.00030922 RMS(Int)=  0.00230254
 Iteration  4 RMS(Cart)=  0.00000015 RMS(Int)=  0.00230254
 Iteration  1 RMS(Cart)=  0.00001217 RMS(Int)=  0.00001535
 Iteration  2 RMS(Cart)=  0.00000762 RMS(Int)=  0.00001705
 Iteration  3 RMS(Cart)=  0.00000477 RMS(Int)=  0.00001953
 Iteration  4 RMS(Cart)=  0.00000299 RMS(Int)=  0.00002145
 Iteration  5 RMS(Cart)=  0.00000187 RMS(Int)=  0.00002276
 Iteration  6 RMS(Cart)=  0.00000117 RMS(Int)=  0.00002362
 Iteration  7 RMS(Cart)=  0.00000073 RMS(Int)=  0.00002416
 ClnCor:  largest displacement from symmetrization is 4.82D-11 for atom     9.
 Variable       Old X    -DE/DX   Delta X   Delta X   Delta X     New X
                                 (Linear)    (Quad)   (Total)
    R1        2.91931  -0.00069   0.00150  -0.00534  -0.00385   2.91546
    R2        2.66219  -0.01063   0.00924  -0.03900  -0.02976   2.63244
    R3        2.04742   0.00123  -0.00427   0.00875   0.00448   2.05190
    R4        2.06759  -0.00264   0.00492  -0.01457  -0.00965   2.05794
    R5        2.66219  -0.01063   0.00924  -0.03900  -0.02976   2.63244
    R6        2.04742   0.00123  -0.00427   0.00875   0.00448   2.05190
    R7        2.06759  -0.00264   0.00492  -0.01457  -0.00965   2.05794
    R8        1.78835   0.00039  -0.00011   0.00103   0.00092   1.78927
    R9        1.78835   0.00039  -0.00011   0.00103   0.00092   1.78927
    A1        1.92952   0.00200  -0.00037   0.00475  -0.00028   1.92924
    A2        1.93607  -0.00084  -0.00222  -0.02430  -0.03090   1.90517
    A3        1.84926   0.00404  -0.00201   0.07479   0.06997   1.91923
    A4        2.00119  -0.00657  -0.05961  -0.04540  -0.10743   1.89376
    A5        1.88273   0.00195   0.08186  -0.02758   0.05230   1.93503
    A6        1.85641   0.00031  -0.00718   0.02880   0.02394   1.88035
    A7        1.92952   0.00200  -0.00037   0.00475  -0.00028   1.92924
    A8        1.93607  -0.00084  -0.00222  -0.02430  -0.03090   1.90517
    A9        1.84926   0.00404  -0.00201   0.07479   0.06997   1.91923
   A10        2.00119  -0.00657  -0.05961  -0.04540  -0.10743   1.89376
   A11        1.88273   0.00195   0.08186  -0.02758   0.05230   1.93503
   A12        1.85641   0.00031  -0.00718   0.02880   0.02394   1.88035
   A13        1.89696  -0.00074   0.00073  -0.00683  -0.00610   1.89087
   A14        1.89696  -0.00074   0.00073  -0.00683  -0.00610   1.89087
    D1       -0.30298   0.00773   0.00000   0.00000   0.00000  -0.30298
    D2        1.93715  -0.00006  -0.08357  -0.07540  -0.15846   1.77869
    D3       -2.33840   0.00213  -0.09431  -0.01190  -0.10678  -2.44518
    D4        1.93715  -0.00006  -0.08357  -0.07540  -0.15846   1.77869
    D5       -2.10590  -0.00785  -0.16715  -0.15080  -0.31691  -2.42282
    D6       -0.09827  -0.00566  -0.17789  -0.08729  -0.26523  -0.36350
    D7       -2.33840   0.00213  -0.09431  -0.01190  -0.10678  -2.44518
    D8       -0.09827  -0.00566  -0.17789  -0.08729  -0.26523  -0.36350
    D9        1.90936  -0.00346  -0.18863  -0.02378  -0.21355   1.69581
   D10       -3.09632  -0.00389  -0.03428  -0.04340  -0.07615   3.11071
   D11        0.98264   0.00083   0.02215   0.02209   0.03952   1.02215
   D12       -1.08174   0.00311   0.00623   0.03281   0.04223  -1.03951
   D13       -3.09632  -0.00389  -0.03428  -0.04340  -0.07615   3.11071
   D14        0.98264   0.00083   0.02215   0.02209   0.03952   1.02215
   D15       -1.08174   0.00311   0.00623   0.03281   0.04223  -1.03951
         Item               Value     Threshold  Converged?
 Maximum Force            0.010628     0.000450     NO 
 RMS     Force            0.003594     0.000300     NO 
 Maximum Displacement     0.247267     0.001800     NO 
 RMS     Displacement     0.078958     0.001200     NO 
 Predicted change in Energy=-4.993221D-03
 GradGradGradGradGradGradGradGradGradGradGradGradGradGradGradGradGradGrad

                          Input orientation:                          
 ---------------------------------------------------------------------
 Center     Atomic      Atomic             Coordinates (Angstroms)
 Number     Number       Type             X           Y           Z
 ---------------------------------------------------------------------
      1          6           0        0.001960    0.771396    0.626578
      2          6           0       -0.001960   -0.771396    0.626578
      3          1           0        0.169579    2.205409   -0.631402
      4          1           0       -0.169579   -2.205409   -0.631402
      5          8           0        0.200064    1.259588   -0.662973
      6          8           0       -0.200064   -1.259588   -0.662973
      7          1           0       -0.957285    1.130179    0.987312
      8          1           0        0.770479    1.141264    1.303729
      9          1           0        0.957285   -1.130179    0.987312
     10          1           0       -0.770479   -1.141264    1.303729
 ---------------------------------------------------------------------
                    Distance matrix (angstroms):
                    1          2          3          4          5
     1  C    0.000000
     2  C    1.542798   0.000000
     3  H    1.914942   3.236250   0.000000
     4  H    3.236250   1.914942   4.423839   0.000000
     5  O    1.393025   2.414260   0.946839   3.484802   0.000000
     6  O    2.414260   1.393025   3.484802   0.946839   2.550756
     7  H    1.085820   2.158417   2.246370   3.790365   2.019813
     8  H    1.089016   2.171052   2.288716   3.978525   2.051168
     9  H    2.158417   1.085820   3.790365   2.246370   3.001302
    10  H    2.171052   1.089016   3.978525   2.288716   3.251763
                    6          7          8          9         10
     6  O    0.000000
     7  H    3.001302   0.000000
     8  H    3.251763   1.756533   0.000000
     9  H    2.019813   2.962228   2.300971   0.000000
    10  H    2.051168   2.300971   2.753994   1.756533   0.000000
 Stoichiometry    C2H6O2
 Framework group  C2[X(C2H6O2)]
 Deg. of freedom    13
 Full point group                 C2      NOp   2
 Largest Abelian subgroup         C2      NOp   2
 Largest concise Abelian subgroup C2      NOp   2
                         Standard orientation:                         
 ---------------------------------------------------------------------
 Center     Atomic      Atomic             Coordinates (Angstroms)
 Number     Number       Type             X           Y           Z
 ---------------------------------------------------------------------
      1          6           0       -0.074404    0.767802    0.619794
      2          6           0        0.074404   -0.767802    0.619794
      3          1           0       -0.049551    2.211364   -0.638186
      4          1           0        0.049551   -2.211364   -0.638186
      5          8           0        0.074404    1.273206   -0.669757
      6          8           0       -0.074404   -1.273206   -0.669757
      7          1           0       -1.064452    1.029874    0.980529
      8          1           0        0.653730    1.211923    1.296946
      9          1           0        1.064452   -1.029874    0.980529
     10          1           0       -0.653730   -1.211923    1.296946
 ---------------------------------------------------------------------
 Rotational constants (GHZ):     15.3144645      5.9864118      4.5728046
 Standard basis: 6-31G(d) (6D, 7F)
 There are    36 symmetry adapted basis functions of A   symmetry.
 There are    36 symmetry adapted basis functions of B   symmetry.
 Integral buffers will be    131072 words long.
 Raffenetti 1 integral format.
 Two-electron integral symmetry is turned on.
    72 basis functions,   136 primitive gaussians,    72 cartesian basis functions
    17 alpha electrons       17 beta electrons
       nuclear repulsion energy       134.1081126390 Hartrees.
 NAtoms=   10 NActive=   10 NUniq=    5 SFac= 3.00D+00 NAtFMM=   80 NAOKFM=F Big=F
 One-electron integrals computed using PRISM.
 NBasis=    72 RedAO= T  NBF=    36    36
 NBsUse=    72 1.00D-06 NBFU=    36    36
 Initial guess read from the read-write file.
 B after Tr=     0.000000    0.000000    0.000000
         Rot=    1.000000    0.000000    0.000000    0.000000 Ang=   0.00 deg.
 Initial guess orbital symmetries:
       Occupied  (B) (A) (A) (B) (A) (B) (A) (B) (A) (B) (B) (A)
                 (A) (B) (A) (B) (A)
       Virtual   (A) (B) (A) (B) (B) (A) (A) (B) (B) (A) (B) (A)
                 (B) (B) (A) (A) (A) (B) (B) (A) (A) (B) (A) (B)
                 (B) (A) (A) (B) (B) (A) (B) (A) (B) (A) (B) (B)
                 (A) (A) (A) (B) (B) (A) (A) (B) (B) (A) (A) (B)
                 (B) (A) (B) (A) (B) (A) (B)
 Harris functional with IExCor=  205 diagonalized for initial guess.
 ExpMin= 1.61D-01 ExpMax= 5.48D+03 ExpMxC= 8.25D+02 IAcc=1 IRadAn=         1 AccDes= 0.00D+00
 HarFok:  IExCor=  205 AccDes= 0.00D+00 IRadAn=         1 IDoV= 1
 ScaDFX=  1.000000  1.000000  1.000000  1.000000
 FoFCou: FMM=F IPFlag=           0 FMFlag=      100000 FMFlg1=           0
         NFxFlg=           0 DoJE=T BraDBF=F KetDBF=T FulRan=T
         Omega=  0.000000  0.000000  1.000000  0.000000  0.000000 ICntrl=     500 IOpCl=  0
         NMat0=    1 NMatS0=    1 NMatT0=    0 NMatD0=    1 NMtDS0=    0 NMtDT0=    0
         I1Cent=           4 NGrid=           0.
 Petite list used in FoFCou.
 Requested convergence on RMS density matrix=1.00D-08 within 128 cycles.
 Requested convergence on MAX density matrix=1.00D-06.
 Requested convergence on             energy=1.00D-06.
 No special actions if energy rises.
 Keep R1 ints in memory in canonical form, NReq=4309302.
 SCF Done:  E(RHF) =  -228.907000094     A.U. after   12 cycles
             Convg  =    0.3375D-08             -V/T =  2.0015
 Calling FoFJK, ICntrl=      2127 FMM=F ISym2X=1 I1Cent= 0 IOpClX= 0 NMat=1 NMatS=1 NMatT=0.
 ***** Axes restored to original set *****
 -------------------------------------------------------------------
 Center     Atomic                   Forces (Hartrees/Bohr)
 Number     Number              X              Y              Z
 -------------------------------------------------------------------
      1        6          -0.010911110   -0.001197584   -0.001019826
      2        6           0.010911110    0.001197584   -0.001019825
      3        1           0.000266300   -0.000510183   -0.000727441
      4        1          -0.000266299    0.000510183   -0.000727441
      5        8           0.006902289    0.001317344   -0.003149985
      6        8          -0.006902289   -0.001317344   -0.003149985
      7        1          -0.001066107   -0.000433061    0.003714074
      8        1          -0.001025745   -0.002725889    0.001183177
      9        1           0.001066107    0.000433061    0.003714074
     10        1           0.001025745    0.002725889    0.001183177
 -------------------------------------------------------------------
 Cartesian Forces:  Max     0.010911110 RMS     0.003712029

 GradGradGradGradGradGradGradGradGradGradGradGradGradGradGradGradGradGrad
 Berny optimization.
 Using GEDIIS/GDIIS optimizer.
 Internal  Forces:  Max     0.006271816 RMS     0.002511112
 Search for a local minimum.
 Step number   4 out of a maximum of   48
 All quantities printed in internal units (Hartrees-Bohrs-Radians)
 Mixed Optimization -- RFO/linear search
 Update second derivatives using D2CorX and points    3    4
 DE= -3.90D-03 DEPred=-4.99D-03 R= 7.82D-01
 SS=  1.41D+00  RLast= 6.49D-01 DXNew= 8.4853D-01 1.9477D+00
 Trust test= 7.82D-01 RLast= 6.49D-01 DXMaxT set to 8.49D-01
 Use linear search instead of GDIIS.
     Eigenvalues ---    0.01710   0.01712   0.02202   0.04993   0.05834
     Eigenvalues ---    0.06264   0.11490   0.12134   0.13691   0.13862
     Eigenvalues ---    0.16000   0.16096   0.22023   0.22201   0.28321
     Eigenvalues ---    0.34970   0.35015   0.35022   0.35049   0.45873
     Eigenvalues ---    0.49475   0.58487   0.585071000.000001000.00000
     Eigenvalues --- 1000.000001000.000001000.000001000.000001000.00000
     Eigenvalues --- 1000.000001000.000001000.000001000.000001000.00000
     Eigenvalues --- 1000.000001000.000001000.00000
 RFO step:  Lambda=-3.58271522D-04 EMin= 1.71003838D-02
 Quartic linear search produced a step of -0.16912.
 Iteration  1 RMS(Cart)=  0.01535794 RMS(Int)=  0.00032929
 Iteration  2 RMS(Cart)=  0.00016261 RMS(Int)=  0.00028130
 Iteration  3 RMS(Cart)=  0.00000002 RMS(Int)=  0.00028130
 Iteration  1 RMS(Cart)=  0.00000125 RMS(Int)=  0.00000158
 Iteration  2 RMS(Cart)=  0.00000079 RMS(Int)=  0.00000176
 ClnCor:  largest displacement from symmetrization is 5.74D-12 for atom     4.
 Variable       Old X    -DE/DX   Delta X   Delta X   Delta X     New X
                                 (Linear)    (Quad)   (Total)
    R1        2.91546  -0.00356   0.00065  -0.01129  -0.01064   2.90483
    R2        2.63244   0.00489   0.00503   0.00251   0.00754   2.63998
    R3        2.05190   0.00203  -0.00076   0.00586   0.00510   2.05701
    R4        2.05794  -0.00091   0.00163  -0.00429  -0.00266   2.05528
    R5        2.63244   0.00489   0.00503   0.00251   0.00754   2.63998
    R6        2.05190   0.00203  -0.00076   0.00586   0.00510   2.05701
    R7        2.05794  -0.00091   0.00163  -0.00429  -0.00266   2.05528
    R8        1.78927  -0.00054  -0.00016  -0.00058  -0.00074   1.78853
    R9        1.78927  -0.00054  -0.00016  -0.00058  -0.00074   1.78853
    A1        1.92924  -0.00082   0.00005   0.00037   0.00100   1.93023
    A2        1.90517  -0.00010   0.00523  -0.01046  -0.00487   1.90030
    A3        1.91923  -0.00323  -0.01183  -0.00945  -0.02107   1.89816
    A4        1.89376   0.00428   0.01817   0.00316   0.02166   1.91543
    A5        1.93503   0.00017  -0.00884   0.02104   0.01248   1.94751
    A6        1.88035  -0.00017  -0.00405  -0.00508  -0.00965   1.87070
    A7        1.92924  -0.00082   0.00005   0.00037   0.00100   1.93023
    A8        1.90517  -0.00010   0.00523  -0.01046  -0.00487   1.90030
    A9        1.91923  -0.00323  -0.01183  -0.00945  -0.02107   1.89816
   A10        1.89376   0.00428   0.01817   0.00316   0.02166   1.91543
   A11        1.93503   0.00017  -0.00884   0.02104   0.01248   1.94751
   A12        1.88035  -0.00017  -0.00405  -0.00508  -0.00965   1.87070
   A13        1.89087   0.00133   0.00103   0.00558   0.00661   1.89748
   A14        1.89087   0.00133   0.00103   0.00558   0.00661   1.89748
    D1       -0.30298  -0.00627   0.00000   0.00000  -0.00001  -0.30299
    D2        1.77869  -0.00158   0.02680  -0.00242   0.02422   1.80291
    D3       -2.44518  -0.00374   0.01806  -0.02038  -0.00216  -2.44734
    D4        1.77869  -0.00158   0.02680  -0.00242   0.02422   1.80291
    D5       -2.42282   0.00312   0.05360  -0.00484   0.04845  -2.37437
    D6       -0.36350   0.00096   0.04486  -0.02280   0.02207  -0.34144
    D7       -2.44518  -0.00374   0.01806  -0.02038  -0.00216  -2.44734
    D8       -0.36350   0.00096   0.04486  -0.02280   0.02207  -0.34144
    D9        1.69581  -0.00120   0.03612  -0.04076  -0.00432   1.69150
   D10        3.11071   0.00227   0.01288  -0.00025   0.01248   3.12320
   D11        1.02215   0.00023  -0.00668   0.01037   0.00417   1.02632
   D12       -1.03951  -0.00228  -0.00714   0.00237  -0.00511  -1.04462
   D13        3.11071   0.00227   0.01288  -0.00025   0.01248   3.12320
   D14        1.02215   0.00023  -0.00668   0.01037   0.00417   1.02632
   D15       -1.03951  -0.00228  -0.00714   0.00237  -0.00511  -1.04462
         Item               Value     Threshold  Converged?
 Maximum Force            0.004892     0.000450     NO 
 RMS     Force            0.001906     0.000300     NO 
 Maximum Displacement     0.040586     0.001800     NO 
 RMS     Displacement     0.015389     0.001200     NO 
 Predicted change in Energy=-3.554211D-04
 GradGradGradGradGradGradGradGradGradGradGradGradGradGradGradGradGradGrad

                          Input orientation:                          
 ---------------------------------------------------------------------
 Center     Atomic      Atomic             Coordinates (Angstroms)
 Number     Number       Type             X           Y           Z
 ---------------------------------------------------------------------
      1          6           0       -0.001481    0.768583    0.622442
      2          6           0        0.001481   -0.768583    0.622442
      3          1           0        0.172136    2.206117   -0.642215
      4          1           0       -0.172136   -2.206117   -0.642215
      5          8           0        0.194930    1.260360   -0.670318
      6          8           0       -0.194930   -1.260360   -0.670318
      7          1           0       -0.957260    1.118962    1.007927
      8          1           0        0.768653    1.119787    1.305409
      9          1           0        0.957260   -1.118962    1.007927
     10          1           0       -0.768653   -1.119787    1.305409
 ---------------------------------------------------------------------
                    Distance matrix (angstroms):
                    1          2          3          4          5
     1  C    0.000000
     2  C    1.537169   0.000000
     3  H    1.922500   3.236869   0.000000
     4  H    3.236869   1.922500   4.425645   0.000000
     5  O    1.397015   2.413558   0.946449   3.485971   0.000000
     6  O    2.413558   1.397015   3.485971   0.946449   2.550691
     7  H    1.088521   2.151885   2.276052   3.794145   2.040599
     8  H    1.087609   2.149636   2.308503   3.967362   2.062139
     9  H    2.151885   1.088521   3.794145   2.276052   3.009789
    10  H    2.149636   1.087609   3.967362   2.308503   3.239921
                    6          7          8          9         10
     6  O    0.000000
     7  H    3.009789   0.000000
     8  H    3.239921   1.751362   0.000000
     9  H    2.040599   2.945112   2.266288   0.000000
    10  H    2.062139   2.266288   2.716431   1.751362   0.000000
 Stoichiometry    C2H6O2
 Framework group  C2[X(C2H6O2)]
 Deg. of freedom    13
 Full point group                 C2      NOp   2
 Largest Abelian subgroup         C2      NOp   2
 Largest concise Abelian subgroup C2      NOp   2
                         Standard orientation:                         
 ---------------------------------------------------------------------
 Center     Atomic      Atomic             Coordinates (Angstroms)
 Number     Number       Type             X           Y           Z
 ---------------------------------------------------------------------
      1          6           0       -0.074424    0.764973    0.619899
      2          6           0        0.074424   -0.764973    0.619899
      3          1           0       -0.038033    2.212496   -0.644758
      4          1           0        0.038033   -2.212496   -0.644758
      5          8           0        0.074424    1.273172   -0.672861
      6          8           0       -0.074424   -1.273172   -0.672861
      7          1           0       -1.059144    1.023052    1.005385
      8          1           0        0.658899    1.187688    1.302866
      9          1           0        1.059144   -1.023052    1.005385
     10          1           0       -0.658899   -1.187688    1.302866
 ---------------------------------------------------------------------
 Rotational constants (GHZ):     15.1917389      6.0044137      4.5712269
 Standard basis: 6-31G(d) (6D, 7F)
 There are    36 symmetry adapted basis functions of A   symmetry.
 There are    36 symmetry adapted basis functions of B   symmetry.
 Integral buffers will be    131072 words long.
 Raffenetti 1 integral format.
 Two-electron integral symmetry is turned on.
    72 basis functions,   136 primitive gaussians,    72 cartesian basis functions
    17 alpha electrons       17 beta electrons
       nuclear repulsion energy       134.0159090467 Hartrees.
 NAtoms=   10 NActive=   10 NUniq=    5 SFac= 3.00D+00 NAtFMM=   80 NAOKFM=F Big=F
 One-electron integrals computed using PRISM.
 NBasis=    72 RedAO= T  NBF=    36    36
 NBsUse=    72 1.00D-06 NBFU=    36    36
 Initial guess read from the read-write file.
 B after Tr=     0.000000    0.000000    0.000000
         Rot=    1.000000    0.000000    0.000000    0.000000 Ang=   0.00 deg.
 Initial guess orbital symmetries:
       Occupied  (B) (A) (A) (B) (A) (B) (A) (B) (A) (B) (B) (A)
                 (A) (B) (A) (B) (A)
       Virtual   (A) (B) (A) (B) (B) (A) (A) (B) (B) (A) (B) (A)
                 (B) (B) (A) (A) (A) (B) (B) (A) (A) (B) (B) (A)
                 (B) (A) (A) (B) (B) (A) (B) (A) (B) (A) (B) (B)
                 (A) (A) (A) (B) (B) (A) (B) (A) (B) (A) (A) (B)
                 (B) (A) (B) (A) (B) (A) (B)
 Harris functional with IExCor=  205 diagonalized for initial guess.
 ExpMin= 1.61D-01 ExpMax= 5.48D+03 ExpMxC= 8.25D+02 IAcc=1 IRadAn=         1 AccDes= 0.00D+00
 HarFok:  IExCor=  205 AccDes= 0.00D+00 IRadAn=         1 IDoV= 1
 ScaDFX=  1.000000  1.000000  1.000000  1.000000
 FoFCou: FMM=F IPFlag=           0 FMFlag=      100000 FMFlg1=           0
         NFxFlg=           0 DoJE=T BraDBF=F KetDBF=T FulRan=T
         Omega=  0.000000  0.000000  1.000000  0.000000  0.000000 ICntrl=     500 IOpCl=  0
         NMat0=    1 NMatS0=    1 NMatT0=    0 NMatD0=    1 NMtDS0=    0 NMtDT0=    0
         I1Cent=           4 NGrid=           0.
 Petite list used in FoFCou.
 Requested convergence on RMS density matrix=1.00D-08 within 128 cycles.
 Requested convergence on MAX density matrix=1.00D-06.
 Requested convergence on             energy=1.00D-06.
 No special actions if energy rises.
 Keep R1 ints in memory in canonical form, NReq=4309302.
 SCF Done:  E(RHF) =  -228.907316061     A.U. after   10 cycles
             Convg  =    0.4220D-08             -V/T =  2.0015
 Calling FoFJK, ICntrl=      2127 FMM=F ISym2X=1 I1Cent= 0 IOpClX= 0 NMat=1 NMatS=1 NMatT=0.
 ***** Axes restored to original set *****
 -------------------------------------------------------------------
 Center     Atomic                   Forces (Hartrees/Bohr)
 Number     Number              X              Y              Z
 -------------------------------------------------------------------
      1        6          -0.009738557    0.000350404   -0.001518120
      2        6           0.009738557   -0.000350404   -0.001518120
      3        1           0.000114020   -0.000002799    0.000058833
      4        1          -0.000114020    0.000002799    0.000058833
      5        8           0.005193773    0.000197677    0.001679511
      6        8          -0.005193773   -0.000197677    0.001679511
      7        1           0.000150286    0.000602249   -0.000212807
      8        1           0.000208781    0.000329939   -0.000007417
      9        1          -0.000150286   -0.000602249   -0.000212807
     10        1          -0.000208781   -0.000329939   -0.000007417
 -------------------------------------------------------------------
 Cartesian Forces:  Max     0.009738557 RMS     0.002917780

 GradGradGradGradGradGradGradGradGradGradGradGradGradGradGradGradGradGrad
 Berny optimization.
 Using GEDIIS/GDIIS optimizer.
 Internal  Forces:  Max     0.005164986 RMS     0.001436866
 Search for a local minimum.
 Step number   5 out of a maximum of   48
 All quantities printed in internal units (Hartrees-Bohrs-Radians)
 Mixed Optimization -- En-DIIS/RFO-DIIS
 Update second derivatives using D2CorX and points    3    4    5
 DE= -3.16D-04 DEPred=-3.55D-04 R= 8.89D-01
 SS=  1.41D+00  RLast= 8.76D-02 DXNew= 1.4270D+00 2.6284D-01
 Trust test= 8.89D-01 RLast= 8.76D-02 DXMaxT set to 8.49D-01
 Use linear search instead of GDIIS.
     Eigenvalues ---    0.01701   0.01712   0.02220   0.04999   0.05947
     Eigenvalues ---    0.06051   0.11392   0.12815   0.13707   0.13859
     Eigenvalues ---    0.16000   0.16082   0.22011   0.22653   0.30011
     Eigenvalues ---    0.34909   0.34970   0.35022   0.35280   0.45873
     Eigenvalues ---    0.51649   0.58487   0.585041000.000001000.00000
     Eigenvalues --- 1000.000001000.000001000.000001000.000001000.00000
     Eigenvalues --- 1000.000001000.000001000.000001000.000001000.00000
     Eigenvalues --- 1000.000001000.000001000.00000
 RFO step:  Lambda=-2.30165563D-05 EMin= 1.70056021D-02
 Quartic linear search produced a step of -0.09361.
 Iteration  1 RMS(Cart)=  0.00432317 RMS(Int)=  0.00001150
 Iteration  2 RMS(Cart)=  0.00001126 RMS(Int)=  0.00000892
 Iteration  3 RMS(Cart)=  0.00000000 RMS(Int)=  0.00000892
 Iteration  1 RMS(Cart)=  0.00000135 RMS(Int)=  0.00000171
 Iteration  2 RMS(Cart)=  0.00000085 RMS(Int)=  0.00000190
 ClnCor:  largest displacement from symmetrization is 3.54D-13 for atom     4.
 Variable       Old X    -DE/DX   Delta X   Delta X   Delta X     New X
                                 (Linear)    (Quad)   (Total)
    R1        2.90483   0.00149   0.00100   0.00330   0.00429   2.90912
    R2        2.63998  -0.00079  -0.00071  -0.00022  -0.00093   2.63905
    R3        2.05701  -0.00001  -0.00048   0.00057   0.00009   2.05710
    R4        2.05528   0.00025   0.00025   0.00040   0.00065   2.05593
    R5        2.63998  -0.00079  -0.00071  -0.00022  -0.00093   2.63905
    R6        2.05701  -0.00001  -0.00048   0.00057   0.00009   2.05710
    R7        2.05528   0.00025   0.00025   0.00040   0.00065   2.05593
    R8        1.78853   0.00000   0.00007  -0.00011  -0.00004   1.78849
    R9        1.78853   0.00000   0.00007  -0.00011  -0.00004   1.78849
    A1        1.93023   0.00063  -0.00009   0.00269   0.00259   1.93282
    A2        1.90030   0.00102   0.00046   0.00450   0.00497   1.90527
    A3        1.89816  -0.00050   0.00197  -0.00310  -0.00112   1.89704
    A4        1.91543   0.00132  -0.00203  -0.00018  -0.00222   1.91321
    A5        1.94751  -0.00230  -0.00117  -0.00126  -0.00242   1.94508
    A6        1.87070  -0.00013   0.00090  -0.00267  -0.00175   1.86895
    A7        1.93023   0.00063  -0.00009   0.00269   0.00259   1.93282
    A8        1.90030   0.00102   0.00046   0.00450   0.00497   1.90527
    A9        1.89816  -0.00050   0.00197  -0.00310  -0.00112   1.89704
   A10        1.91543   0.00132  -0.00203  -0.00018  -0.00222   1.91321
   A11        1.94751  -0.00230  -0.00117  -0.00126  -0.00242   1.94508
   A12        1.87070  -0.00013   0.00090  -0.00267  -0.00175   1.86895
   A13        1.89748  -0.00007  -0.00062   0.00054  -0.00008   1.89739
   A14        1.89748  -0.00007  -0.00062   0.00054  -0.00008   1.89739
    D1       -0.30299  -0.00516   0.00000   0.00000   0.00000  -0.30299
    D2        1.80291  -0.00249  -0.00227   0.00433   0.00207   1.80498
    D3       -2.44734  -0.00236   0.00020   0.00190   0.00210  -2.44524
    D4        1.80291  -0.00249  -0.00227   0.00433   0.00207   1.80498
    D5       -2.37437   0.00019  -0.00454   0.00865   0.00414  -2.37023
    D6       -0.34144   0.00032  -0.00207   0.00623   0.00417  -0.33727
    D7       -2.44734  -0.00236   0.00020   0.00190   0.00210  -2.44524
    D8       -0.34144   0.00032  -0.00207   0.00623   0.00417  -0.33727
    D9        1.69150   0.00044   0.00040   0.00381   0.00420   1.69570
   D10        3.12320   0.00150  -0.00117   0.00739   0.00621   3.12941
   D11        1.02632  -0.00102  -0.00039   0.00021  -0.00018   1.02615
   D12       -1.04462  -0.00027   0.00048   0.00444   0.00492  -1.03969
   D13        3.12320   0.00150  -0.00117   0.00739   0.00621   3.12941
   D14        1.02632  -0.00102  -0.00039   0.00021  -0.00018   1.02615
   D15       -1.04462  -0.00027   0.00048   0.00444   0.00492  -1.03969
         Item               Value     Threshold  Converged?
 Maximum Force            0.001485     0.000450     NO 
 RMS     Force            0.000432     0.000300     NO 
 Maximum Displacement     0.008854     0.001800     NO 
 RMS     Displacement     0.004316     0.001200     NO 
 Predicted change in Energy=-1.483780D-05
 GradGradGradGradGradGradGradGradGradGradGradGradGradGradGradGradGradGrad

                          Input orientation:                          
 ---------------------------------------------------------------------
 Center     Atomic      Atomic             Coordinates (Angstroms)
 Number     Number       Type             X           Y           Z
 ---------------------------------------------------------------------
      1          6           0       -0.002833    0.769715    0.621046
      2          6           0        0.002833   -0.769715    0.621046
      3          1           0        0.173106    2.210750   -0.638529
      4          1           0       -0.173106   -2.210751   -0.638529
      5          8           0        0.192442    1.265046   -0.669999
      6          8           0       -0.192442   -1.265046   -0.669999
      7          1           0       -0.956854    1.123554    1.007861
      8          1           0        0.768657    1.121233    1.302865
      9          1           0        0.956854   -1.123554    1.007861
     10          1           0       -0.768657   -1.121233    1.302865
 ---------------------------------------------------------------------
                    Distance matrix (angstroms):
                    1          2          3          4          5
     1  C    0.000000
     2  C    1.539441   0.000000
     3  H    1.921996   3.240169   0.000000
     4  H    3.240169   1.921996   4.435035   0.000000
     5  O    1.396525   2.417230   0.946426   3.495107   0.000000
     6  O    2.417230   1.396525   3.495107   0.946426   2.559198
     7  H    1.088570   2.157567   2.273633   3.800322   2.038655
     8  H    1.087951   2.151057   2.304504   3.969640   2.060315
     9  H    2.157567   1.088570   3.800322   2.273633   3.017440
    10  H    2.151057   1.087951   3.969640   2.304504   3.241948
                    6          7          8          9         10
     6  O    0.000000
     7  H    3.017440   0.000000
     8  H    3.241948   1.750549   0.000000
     9  H    2.038655   2.951572   2.271897   0.000000
    10  H    2.060315   2.271897   2.718821   1.750549   0.000000
 Stoichiometry    C2H6O2
 Framework group  C2[X(C2H6O2)]
 Deg. of freedom    13
 Full point group                 C2      NOp   2
 Largest Abelian subgroup         C2      NOp   2
 Largest concise Abelian subgroup C2      NOp   2
                         Standard orientation:                         
 ---------------------------------------------------------------------
 Center     Atomic      Atomic             Coordinates (Angstroms)
 Number     Number       Type             X           Y           Z
 ---------------------------------------------------------------------
[...]
             Convg  =    0.4748D-08             -V/T =  2.0015
 Calling FoFJK, ICntrl=      2127 FMM=F ISym2X=1 I1Cent= 0 IOpClX= 0 NMat=1 NMatS=1 NMatT=0.
 ***** Axes restored to original set *****
 -------------------------------------------------------------------
 Center     Atomic                   Forces (Hartrees/Bohr)
 Number     Number              X              Y              Z
 -------------------------------------------------------------------
      1        6          -0.008799045   -0.000099925   -0.000749829
      2        6           0.008799045    0.000099925   -0.000749828
      3        1           0.000000049    0.000003769    0.000003546
      4        1          -0.000000049   -0.000003769    0.000003546
      5        8           0.005370027    0.000059670    0.000765122
      6        8          -0.005370027   -0.000059670    0.000765122
      7        1          -0.000000940    0.000007031   -0.000008756
      8        1          -0.000014047   -0.000008808   -0.000010083
      9        1           0.000000940   -0.000007031   -0.000008756
     10        1           0.000014047    0.000008808   -0.000010083
 -------------------------------------------------------------------
 Cartesian Forces:  Max     0.008799045 RMS     0.002676093

 GradGradGradGradGradGradGradGradGradGradGradGradGradGradGradGradGradGrad
 Berny optimization.
 Using GEDIIS/GDIIS optimizer.
 Internal  Forces:  Max     0.004997608 RMS     0.001327363
 Search for a local minimum.
 Step number  10 out of a maximum of   48
 All quantities printed in internal units (Hartrees-Bohrs-Radians)
 Mixed Optimization -- En-DIIS/RFO-DIIS
 Swaping is turned off.
 Update second derivatives using D2CorX and points    3    4    5    6    7
                                                      8    9   10
 DE= -2.32D-07 DEPred=-1.60D-07 R= 1.45D+00
 Trust test= 1.45D+00 RLast= 7.01D-03 DXMaxT set to 8.49D-01
     Eigenvalues ---    0.00234   0.01712   0.02385   0.04988   0.05929
     Eigenvalues ---    0.06425   0.11414   0.13681   0.13866   0.14767
     Eigenvalues ---    0.16000   0.16514   0.22009   0.25149   0.34738
     Eigenvalues ---    0.34970   0.35022   0.35812   0.39192   0.45873
     Eigenvalues ---    0.46536   0.58487   0.586081000.000001000.00000
     Eigenvalues --- 1000.000001000.000001000.000001000.000001000.00000
     Eigenvalues --- 1000.000001000.000001000.000001000.000001000.00000
     Eigenvalues --- 1000.000001000.000001000.00000
 En-DIIS/RFO-DIIS IScMMF=        0 using points:    10    9    8    7    6
 RFO step:  Lambda=-2.12947418D-06.
 DIIS coeffs:      1.31143     -0.29600     -0.17441      0.23343     -0.07446
 Iteration  1 RMS(Cart)=  0.00009580 RMS(Int)=  0.00000066
 Iteration  2 RMS(Cart)=  0.00000001 RMS(Int)=  0.00000066
 Iteration  1 RMS(Cart)=  0.00000086 RMS(Int)=  0.00000108
 ClnCor:  largest displacement from symmetrization is 1.62D-12 for atom     9.
 Variable       Old X    -DE/DX   Delta X   Delta X   Delta X     New X
                                  (DIIS)     (GDIIS)  (Total)
    R1        2.90805  -0.00001  -0.00002  -0.00005  -0.00007   2.90799
    R2        2.63836   0.00005   0.00015   0.00000   0.00015   2.63852
    R3        2.05696   0.00000  -0.00001   0.00000  -0.00001   2.05695
    R4        2.05619  -0.00002  -0.00004  -0.00002  -0.00006   2.05613
    R5        2.63836   0.00005   0.00015   0.00000   0.00015   2.63852
    R6        2.05696   0.00000  -0.00001   0.00000  -0.00001   2.05695
    R7        2.05619  -0.00002  -0.00004  -0.00002  -0.00006   2.05613
    R8        1.78848   0.00000   0.00000   0.00001   0.00001   1.78849
    R9        1.78848   0.00000   0.00000   0.00001   0.00001   1.78849
    A1        1.93145   0.00002   0.00000   0.00001   0.00001   1.93146
    A2        1.90424   0.00046   0.00006   0.00000   0.00006   1.90430
    A3        1.89780  -0.00045   0.00000   0.00000   0.00000   1.89780
    A4        1.91363   0.00188  -0.00004  -0.00007  -0.00011   1.91352
    A5        1.94556  -0.00188  -0.00005   0.00005   0.00000   1.94556
    A6        1.86975   0.00000   0.00003   0.00001   0.00004   1.86979
    A7        1.93145   0.00002   0.00000   0.00001   0.00001   1.93146
    A8        1.90424   0.00046   0.00006   0.00000   0.00006   1.90430
    A9        1.89780  -0.00045   0.00000   0.00000   0.00000   1.89780
   A10        1.91363   0.00188  -0.00004  -0.00007  -0.00011   1.91352
   A11        1.94556  -0.00188  -0.00005   0.00005   0.00000   1.94556
   A12        1.86975   0.00000   0.00003   0.00001   0.00004   1.86979
   A13        1.89746  -0.00001  -0.00009   0.00003  -0.00006   1.89740
   A14        1.89746  -0.00001  -0.00009   0.00003  -0.00006   1.89740
    D1       -0.30299  -0.00500   0.00000   0.00000   0.00000  -0.30299
    D2        1.80397  -0.00237  -0.00001  -0.00008  -0.00009   1.80388
    D3       -2.44545  -0.00237   0.00006  -0.00007  -0.00001  -2.44546
    D4        1.80397  -0.00237  -0.00001  -0.00008  -0.00009   1.80388
    D5       -2.37225   0.00026  -0.00003  -0.00016  -0.00019  -2.37243
    D6       -0.33848   0.00026   0.00005  -0.00015  -0.00010  -0.33859
    D7       -2.44545  -0.00237   0.00006  -0.00007  -0.00001  -2.44546
    D8       -0.33848   0.00026   0.00005  -0.00015  -0.00010  -0.33859
    D9        1.69528   0.00026   0.00012  -0.00014  -0.00002   1.69526
   D10       -3.12866   0.00121   0.00030  -0.00003   0.00028  -3.12839
   D11        1.05315  -0.00059   0.00025   0.00001   0.00027   1.05342
   D12       -1.01424  -0.00062   0.00027   0.00001   0.00028  -1.01396
   D13       -3.12866   0.00121   0.00030  -0.00003   0.00028  -3.12839
   D14        1.05315  -0.00059   0.00025   0.00001   0.00027   1.05342
   D15       -1.01424  -0.00062   0.00027   0.00001   0.00028  -1.01396
         Item               Value     Threshold  Converged?
 Maximum Force            0.000055     0.000450     YES
 RMS     Force            0.000014     0.000300     YES
 Maximum Displacement     0.000254     0.001800     YES
 RMS     Displacement     0.000095     0.001200     YES
 Predicted change in Energy=-1.090726D-08
 Optimization completed.
    -- Stationary point found.
                           ----------------------------
                           !   Optimized Parameters   !
                           ! (Angstroms and Degrees)  !
 --------------------------                            --------------------------
 ! Name  Definition              Value          Derivative Info.                !
 --------------------------------------------------------------------------------
 ! R1    R(1,2)                  1.5389         -DE/DX =    0.0                 !
 ! R2    R(1,5)                  1.3962         -DE/DX =    0.0001              !
 ! R3    R(1,7)                  1.0885         -DE/DX =    0.0                 !
 ! R4    R(1,8)                  1.0881         -DE/DX =    0.0                 !
 ! R5    R(2,6)                  1.3962         -DE/DX =    0.0001              !
 ! R6    R(2,9)                  1.0885         -DE/DX =    0.0                 !
 ! R7    R(2,10)                 1.0881         -DE/DX =    0.0                 !
 ! R8    R(3,5)                  0.9464         -DE/DX =    0.0                 !
 ! R9    R(4,6)                  0.9464         -DE/DX =    0.0                 !
 ! A1    A(2,1,5)              110.6637         -DE/DX =    0.0                 !
 ! A2    A(2,1,7)              109.1047         -DE/DX =    0.0005              !
 ! A3    A(2,1,8)              108.7357         -DE/DX =   -0.0004              !
 ! A4    A(5,1,7)              109.643          -DE/DX =    0.0019              !
 ! A5    A(5,1,8)              111.4723         -DE/DX =   -0.0019              !
 ! A6    A(7,1,8)              107.1286         -DE/DX =    0.0                 !
 ! A7    A(1,2,6)              110.6637         -DE/DX =    0.0                 !
 ! A8    A(1,2,9)              109.1047         -DE/DX =    0.0005              !
 ! A9    A(1,2,10)             108.7357         -DE/DX =   -0.0004              !
 ! A10   A(6,2,9)              109.643          -DE/DX =    0.0019              !
 ! A11   A(6,2,10)             111.4723         -DE/DX =   -0.0019              !
 ! A12   A(9,2,10)             107.1286         -DE/DX =    0.0                 !
 ! A13   A(1,5,3)              108.7164         -DE/DX =    0.0                 !
 ! A14   A(2,6,4)              108.7164         -DE/DX =    0.0                 !
 ! D1    D(5,1,2,6)            -17.3601         -DE/DX =   -0.005               !
 ! D2    D(5,1,2,9)            103.3601         -DE/DX =   -0.0024              !
 ! D3    D(5,1,2,10)          -140.1138         -DE/DX =   -0.0024              !
 ! D4    D(7,1,2,6)            103.3601         -DE/DX =   -0.0024              !
 ! D5    D(7,1,2,9)           -135.9197         -DE/DX =    0.0003              !
 ! D6    D(7,1,2,10)           -19.3936         -DE/DX =    0.0003              !
 ! D7    D(8,1,2,6)           -140.1138         -DE/DX =   -0.0024              !
 ! D8    D(8,1,2,9)            -19.3936         -DE/DX =    0.0003              !
 ! D9    D(8,1,2,10)            97.1325         -DE/DX =    0.0003              !
 ! D10   D(2,1,5,3)           -179.2591         -DE/DX =    0.0012              !
 ! D11   D(7,1,5,3)             60.3413         -DE/DX =   -0.0006              !
 ! D12   D(8,1,5,3)            -58.1117         -DE/DX =   -0.0006              !
 ! D13   D(1,2,6,4)           -179.2591         -DE/DX =    0.0012              !
 ! D14   D(9,2,6,4)             60.3413         -DE/DX =   -0.0006              !
 ! D15   D(10,2,6,4)           -58.1117         -DE/DX =   -0.0006              !
 --------------------------------------------------------------------------------
 GradGradGradGradGradGradGradGradGradGradGradGradGradGradGradGradGradGrad

                          Input orientation:                          
 ---------------------------------------------------------------------
 Center     Atomic      Atomic             Coordinates (Angstroms)
 Number     Number       Type             X           Y           Z
 ---------------------------------------------------------------------
      1          6           0       -0.006132    0.769414    0.620927
      2          6           0        0.006132   -0.769414    0.620927
      3          1           0        0.186156    2.209479   -0.636941
      4          1           0       -0.186156   -2.209479   -0.636941
      5          8           0        0.187085    1.263650   -0.670455
      6          8           0       -0.187085   -1.263650   -0.670455
      7          1           0       -0.962321    1.118065    1.006895
      8          1           0        0.763595    1.125057    1.302818
      9          1           0        0.962321   -1.118065    1.006895
     10          1           0       -0.763595   -1.125057    1.302818
 ---------------------------------------------------------------------
                    Distance matrix (angstroms):
                    1          2          3          4          5
     1  C    0.000000
     2  C    1.538876   0.000000
     3  H    1.921716   3.238586   0.000000
     4  H    3.238586   1.921716   4.434615   0.000000
     5  O    1.396162   2.415317   0.946423   3.493287   0.000000
     6  O    2.415317   1.396162   3.493287   0.946423   2.554848
     7  H    1.088498   2.156258   2.283064   3.791725   2.038586
     8  H    1.088089   2.151220   2.296100   3.972886   2.060432
     9  H    2.156258   1.088498   3.791725   2.283064   3.014475
    10  H    2.151220   1.088089   3.972886   2.296100   3.240914
                    6          7          8          9         10
     6  O    0.000000
     7  H    3.014475   0.000000
     8  H    3.240914   1.751116   0.000000
     9  H    2.038586   2.950343   2.271268   0.000000
    10  H    2.060432   2.271268   2.719434   1.751116   0.000000
 Stoichiometry    C2H6O2
 Framework group  C2[X(C2H6O2)]
 Deg. of freedom    13
 Full point group                 C2      NOp   2
 Largest Abelian subgroup         C2      NOp   2
 Largest concise Abelian subgroup C2      NOp   2
                         Standard orientation:                         
 ---------------------------------------------------------------------
 Center     Atomic      Atomic             Coordinates (Angstroms)
 Number     Number       Type             X           Y           Z
 ---------------------------------------------------------------------
      1          6           0       -0.074320    0.765840    0.618886
      2          6           0        0.074320   -0.765840    0.618886
      3          1           0       -0.010458    2.217283   -0.638982
      4          1           0        0.010458   -2.217283   -0.638982
      5          8           0        0.074320    1.275260   -0.672496
      6          8           0       -0.074320   -1.275260   -0.672496
      7          1           0       -1.057653    1.028348    1.004854
      8          1           0        0.660847    1.188323    1.300778
      9          1           0        1.057653   -1.028348    1.004854
     10          1           0       -0.660847   -1.188323    1.300778
 ---------------------------------------------------------------------
 Rotational constants (GHZ):     15.2293899      5.9855642      4.5630481

 **********************************************************************

            Population analysis using the SCF density.

 **********************************************************************

 Orbital symmetries:
       Occupied  (B) (A) (A) (B) (A) (B) (A) (B) (A) (B) (B) (A)
                 (A) (B) (A) (B) (A)
       Virtual   (A) (B) (A) (B) (B) (A) (A) (B) (B) (A) (B) (A)
                 (B) (B) (A) (A) (A) (B) (B) (A) (A) (B) (B) (A)
                 (B) (A) (A) (B) (B) (A) (B) (A) (B) (A) (B) (B)
                 (A) (A) (A) (B) (B) (A) (A) (B) (B) (A) (A) (B)
                 (B) (A) (B) (A) (B) (A) (B)
 The electronic state is 1-A.
 Alpha  occ. eigenvalues --  -20.54957 -20.54957 -11.27263 -11.27206  -1.37120
 Alpha  occ. eigenvalues --   -1.34656  -0.99574  -0.83020  -0.72617  -0.67001
 Alpha  occ. eigenvalues --   -0.64774  -0.59351  -0.58013  -0.51015  -0.47689
 Alpha  occ. eigenvalues --   -0.45378  -0.41482
 Alpha virt. eigenvalues --    0.21031   0.25447   0.26835   0.28585   0.33129
 Alpha virt. eigenvalues --    0.36119   0.38733   0.42151   0.49363   0.76379
 Alpha virt. eigenvalues --    0.78071   0.80926   0.83599   0.90777   0.95842
 Alpha virt. eigenvalues --    1.06042   1.07135   1.10235   1.13456   1.13803
 Alpha virt. eigenvalues --    1.17813   1.21983   1.23861   1.24534   1.29473
 Alpha virt. eigenvalues --    1.34916   1.36535   1.50011   1.65379   1.70202
 Alpha virt. eigenvalues --    1.74644   1.77964   1.96691   2.03464   2.04356
 Alpha virt. eigenvalues --    2.11618   2.11630   2.18887   2.36300   2.41115
 Alpha virt. eigenvalues --    2.49328   2.51764   2.67671   2.68152   2.71135
 Alpha virt. eigenvalues --    2.82875   2.85021   2.89218   3.07823   3.15998
 Alpha virt. eigenvalues --    3.27434   4.10628   4.34112   4.59856   4.87780
          Condensed to atoms (all electrons):
              1          2          3          4          5          6
     1  C    4.792330   0.335293  -0.023376   0.005918   0.226305  -0.044242
     2  C    0.335293   4.792330   0.005918  -0.023376  -0.044242   0.226305
     3  H   -0.023376   0.005918   0.325671   0.000013   0.262395  -0.000041
     4  H    0.005918  -0.023376   0.000013   0.325671  -0.000041   0.262395
     5  O    0.226305  -0.044242   0.262395  -0.000041   8.347226  -0.002623
     6  O   -0.044242   0.226305  -0.000041   0.262395  -0.002623   8.347226
     7  H    0.404339  -0.046409  -0.003519  -0.000179  -0.042606   0.001258
     8  H    0.401275  -0.047260  -0.004070  -0.000146  -0.038055   0.002249
     9  H   -0.046409   0.404339  -0.000179  -0.003519   0.001258  -0.042606
    10  H   -0.047260   0.401275  -0.000146  -0.004070   0.002249  -0.038055
              7          8          9         10
     1  C    0.404339   0.401275  -0.046409  -0.047260
     2  C   -0.046409  -0.047260   0.404339   0.401275
     3  H   -0.003519  -0.004070  -0.000179  -0.000146
     4  H   -0.000179  -0.000146  -0.003519  -0.004070
     5  O   -0.042606  -0.038055   0.001258   0.002249
     6  O    0.001258   0.002249  -0.042606  -0.038055
     7  H    0.598473  -0.050047   0.004971  -0.006127
     8  H   -0.050047   0.599622  -0.006127   0.003699
     9  H    0.004971  -0.006127   0.598473  -0.050047
    10  H   -0.006127   0.003699  -0.050047   0.599622
 Mulliken atomic charges:
              1
     1  C   -0.004174
     2  C   -0.004174
     3  H    0.437334
     4  H    0.437334
     5  O   -0.711866
     6  O   -0.711866
     7  H    0.139846
     8  H    0.138859
     9  H    0.139846
    10  H    0.138859
 Sum of Mulliken atomic charges =   0.00000
 Mulliken charges with hydrogens summed into heavy atoms:
              1
     1  C    0.274532
     2  C    0.274532
     5  O   -0.274532
     6  O   -0.274532
 Sum of Mulliken charges with hydrogens summed into heavy atoms =   0.00000
 Electronic spatial extent (au):  <R**2>=            296.6890
 Charge=              0.0000 electrons
 Dipole moment (field-independent basis, Debye):
    X=              0.0000    Y=              0.0000    Z=              2.7205  Tot=              2.7205
 Quadrupole moment (field-independent basis, Debye-Ang):
   XX=            -25.4365   YY=            -14.7754   ZZ=            -26.7102
   XY=             -0.8189   XZ=              0.0000   YZ=              0.0000
 Traceless Quadrupole moment (field-independent basis, Debye-Ang):
   XX=             -3.1291   YY=              7.5320   ZZ=             -4.4029
   XY=             -0.8189   XZ=              0.0000   YZ=              0.0000
 Octapole moment (field-independent basis, Debye-Ang**2):
  XXX=              0.0000  YYY=              0.0000  ZZZ=             -3.1952  XYY=              0.0000
  XXY=              0.0000  XXZ=             -0.5874  XZZ=              0.0000  YZZ=              0.0000
  YYZ=             -6.7917  XYZ=              0.7293
 Hexadecapole moment (field-independent basis, Debye-Ang**3):
 XXXX=            -36.5346 YYYY=           -130.8648 ZZZZ=           -103.7474 XXXY=             -0.6546
 XXXZ=              0.0000 YYYX=             -1.6524 YYYZ=              0.0000 ZZZX=              0.0000
 ZZZY=              0.0000 XXYY=            -42.5071 XXZZ=            -23.1606 YYZZ=            -49.8098
 XXYZ=              0.0000 YYXZ=              0.0000 ZZXY=              0.2524
 N-N= 1.339737625955D+02 E-N=-8.077945143499D+02  KE= 2.285537936892D+02
 Symmetry A    KE= 1.153971151420D+02
 Symmetry B    KE= 1.131566785472D+02
 1\1\GINC-NODE9\FOpt\RHF\6-31G(d)\C2H6O2\WUCH\14-Sep-2010\0\\#HF/6-31G*
  Opt=ModRed MaxDisk=32GB\\12-ethanediol Rotatable Bond Optimization on
  node9.bme.utexas.edu\\0,1\C,-0.0061316082,0.7694135059,0.6209266013\C
 ,0.0061315802,-0.7694135196,0.6209266007\H,0.1861559406,2.2094790143,-
 0.6369408363\H,-0.1861559156,-2.2094790266,-0.6369408467\O,0.187084595
 6,1.2636499515,-0.6704550659\O,-0.1870845692,-1.2636499637,-0.67045507
 52\H,-0.9623207852,1.1180650791,1.0068949968\H,0.7635953294,1.12505690
 86,1.302818306\H,0.962320741,-1.1180650933,1.006895036\H,-0.763595386,
 -1.1250569231,1.3028182726\\Version=EM64L-G09RevA.02\State=1-A\HF=-228
 .9073332\RMSD=4.748e-09\RMSF=2.676e-03\Dipole=0.,0.,1.0703375\Quadrupo
 le=-2.3716441,5.645076,-3.2734319,0.1006934,0.,0.\PG=C02 [X(C2H6O2)]\\
 @


 THE PROGRESS OF RIVERS TO THE SEA IS NOT AS RAPID
 AS THAT OF MAN TO ERROR.
                                              -- VOLTAIRE
 Job cpu time:  0 days  0 hours  0 minutes 41.7 seconds.
 File lengths (MBytes):  RWF=      5 Int=      0 D2E=      0 Chk=      2 Scr=      1
 Normal termination of Gaussian 09 at Tue Sep 14 14:38:36 2010.
