 Entering Gaussian System, Link 0=/opt/g09/gaussian/g09/bin/g09
 Input=12-ethanediol-m06lsp-5-1-2-6-013.com
 Output=12-ethanediol-m06lsp-5-1-2-6-013.log
 Initial command:
 /opt/g09/gaussian/g09/bin/l1.exe /scratch/Gau-12-ethanediol/Gau-19388.inp -scrdir=/scratch/Gau-12-ethanediol/
 Entering Link 1 = /opt/g09/gaussian/g09/bin/l1.exe PID=     19389.
  
 Copyright (c) 1988,1990,1992,1993,1995,1998,2003,2009, Gaussian, Inc.
                  All Rights Reserved.
  
 This is part of the Gaussian(R) 09 program.  It is based on
 the Gaussian(R) 03 system (copyright 2003, Gaussian, Inc.),
 the Gaussian(R) 98 system (copyright 1998, Gaussian, Inc.),
 the Gaussian(R) 94 system (copyright 1995, Gaussian, Inc.),
 the Gaussian 92(TM) system (copyright 1992, Gaussian, Inc.),
 the Gaussian 90(TM) system (copyright 1990, Gaussian, Inc.),
 the Gaussian 88(TM) system (copyright 1988, Gaussian, Inc.),
 the Gaussian 86(TM) system (copyright 1986, Carnegie Mellon
 University), and the Gaussian 82(TM) system (copyright 1983,
 Carnegie Mellon University). Gaussian is a federally registered
 trademark of Gaussian, Inc.
  
 This software contains proprietary and confidential information,
 including trade secrets, belonging to Gaussian, Inc.
  
 This software is provided under written license and may be
 used, copied, transmitted, or stored only in accord with that
 written license.
  
 The following legend is applicable only to US Government
 contracts under FAR:
  
                    RESTRICTED RIGHTS LEGEND
  
 Use, reproduction and disclosure by the US Government is
 subject to restrictions as set forth in subparagraphs (a)
 and (c) of the Commercial Computer Software - Restricted
 Rights clause in FAR 52.227-19.
  
 Gaussian, Inc.
 340 Quinnipiac St., Bldg. 40, Wallingford CT 06492
  
  
 ---------------------------------------------------------------
 Warning -- This program may not be used in any manner that
 competes with the business of Gaussian, Inc. or will provide
 assistance to any competitor of Gaussian, Inc.  The licensee
 of this program is prohibited from giving any competitor of
 Gaussian, Inc. access to this program.  By using this program,
 the user acknowledges that Gaussian, Inc. is engaged in the
 business of creating and licensing software in the field of
 computational chemistry and represents and warrants to the
 licensee that it is not a competitor of Gaussian, Inc. and that
 it will not use this program in any manner prohibited above.
 ---------------------------------------------------------------
  

 Cite this work as:
 Gaussian 09, Revision A.02,
 M. J. Frisch, G. W. Trucks, H. B. Schlegel, G. E. Scuseria, 
 M. A. Robb, J. R. Cheeseman, G. Scalmani, V. Barone, B. Mennucci, 
 G. A. Petersson, H. Nakatsuji, M. Caricato, X. Li, H. P. Hratchian, 
 A. F. Izmaylov, J. Bloino, G. Zheng, J. L. Sonnenberg, M. Hada, 
 M. Ehara, K. Toyota, R. Fukuda, J. Hasegawa, M. Ishida, T. Nakajima, 
 Y. Honda, O. Kitao, H. Nakai, T. Vreven, J. A. Montgomery, Jr., 
 J. E. Peralta, F. Ogliaro, M. Bearpark, J. J. Heyd, E. Brothers, 
 K. N. Kudin, V. N. Staroverov, R. Kobayashi, J. Normand, 
 K. Raghavachari, A. Rendell, J. C. Burant, S. S. Iyengar, J. Tomasi, 
 M. Cossi, N. Rega, J. M. Millam, M. Klene, J. E. Knox, J. B. Cross, 
 V. Bakken, C. Adamo, J. Jaramillo, R. Gomperts, R. E. Stratmann, 
 O. Yazyev, A. J. Austin, R. Cammi, C. Pomelli, J. W. Ochterski, 
 R. L. Martin, K. Morokuma, V. G. Zakrzewski, G. A. Voth, 
 P. Salvador, J. J. Dannenberg, S. Dapprich, A. D. Daniels, 
 O. Farkas, J. B. Foresman, J. V. Ortiz, J. Cioslowski, 
 and D. J. Fox, Gaussian, Inc., Wallingford CT, 2009.
 
 ******************************************
 Gaussian 09:  EM64L-G09RevA.02 11-Jun-2009
                14-Sep-2010 
 ******************************************
 %RWF=/scratch/Gau-12-ethanediol/,32GB
 %Nosave
 %Chk=12-ethanediol-m06lsp-5-1-2-6-013.chk
 %Mem=389242KB
 %Nproc=1
 Will use up to    1 processors via shared memory.
 --------------------------------------------------------------
 #M06L/6-31G** SP SCF=(qc,maxcycle=800) Guess=Indo MaxDisk=32GB
 --------------------------------------------------------------
 1/38=1/1;
 2/12=2,17=6,18=5,40=1/2;
 3/5=1,6=6,7=101,11=2,16=1,25=1,30=1,74=-53/1,2,3;
 4/5=4,11=3/1;
 5/5=2,7=800,8=3,38=5/8;
 6/7=2,8=2,9=2,10=2,28=1/1;
 99/5=1,9=1/99;
 -------------------------------------------------------------------
 12-ethanediol Rotatable Bond SP Calculation on node9.bme.utexas.edu
 -------------------------------------------------------------------
 Symbolic Z-matrix:
 Charge =  0 Multiplicity = 1
 C                     0.05427   0.76901   0.62166 
 C                    -0.05427  -0.76901   0.62166 
 H                     0.00692   2.21644  -0.64057 
 H                    -0.00692  -2.21644  -0.64057 
 O                    -0.05427   1.27264  -0.67593 
 O                     0.05427  -1.27264  -0.67593 
 H                    -0.72085   1.17558   1.26784 
 H                     1.01187   1.05859   1.05025 
 H                     0.72085  -1.17558   1.26784 
 H                    -1.01187  -1.05859   1.05025 
 
                          Input orientation:                          
 ---------------------------------------------------------------------
 Center     Atomic      Atomic             Coordinates (Angstroms)
 Number     Number       Type             X           Y           Z
 ---------------------------------------------------------------------
      1          6           0        0.054268    0.769013    0.621655
      2          6           0       -0.054268   -0.769013    0.621655
      3          1           0        0.006924    2.216437   -0.640567
      4          1           0       -0.006924   -2.216437   -0.640567
      5          8           0       -0.054268    1.272644   -0.675931
      6          8           0        0.054268   -1.272644   -0.675931
      7          1           0       -0.720851    1.175581    1.267840
      8          1           0        1.011870    1.058592    1.050247
      9          1           0        0.720851   -1.175581    1.267840
     10          1           0       -1.011870   -1.058592    1.050247
 ---------------------------------------------------------------------
                    Distance matrix (angstroms):
                    1          2          3          4          5
     1  C    0.000000
     2  C    1.541851   0.000000
     3  H    1.921063   3.241892   0.000000
     4  H    3.241892   1.921063   4.432896   0.000000
     5  O    1.396121   2.419110   0.946436   3.489581   0.000000
     6  O    2.419110   1.396121   3.489581   0.946436   2.547601
     7  H    1.087962   2.154840   2.292391   3.956955   2.057182
     8  H    1.088370   2.158815   2.282405   3.823952   2.040137
     9  H    2.154840   1.087962   3.956955   2.292391   3.220693
    10  H    2.158815   1.088370   3.823952   2.282405   3.054726
                    6          7          8          9         10
     6  O    0.000000
     7  H    3.220693   0.000000
     8  H    3.054726   1.750244   0.000000
     9  H    2.057182   2.757982   2.263530   0.000000
    10  H    2.040137   2.263530   2.928821   1.750244   0.000000
 Stoichiometry    C2H6O2
 Framework group  C2[X(C2H6O2)]
 Deg. of freedom    13
 Full point group                 C2      NOp   2
 Largest Abelian subgroup         C2      NOp   2
 Largest concise Abelian subgroup C2      NOp   2
                         Standard orientation:                         
 ---------------------------------------------------------------------
 Center     Atomic      Atomic             Coordinates (Angstroms)
 Number     Number       Type             X           Y           Z
 ---------------------------------------------------------------------
      1          6           0        0.054268    0.769013    0.621655
      2          6           0       -0.054268   -0.769013    0.621655
      3          1           0        0.006924    2.216437   -0.640567
      4          1           0       -0.006924   -2.216437   -0.640567
      5          8           0       -0.054268    1.272644   -0.675931
      6          8           0        0.054268   -1.272644   -0.675931
      7          1           0       -0.720851    1.175581    1.267840
      8          1           0        1.011870    1.058592    1.050247
      9          1           0        0.720851   -1.175581    1.267840
     10          1           0       -1.011870   -1.058592    1.050247
 ---------------------------------------------------------------------
 Rotational constants (GHZ):     15.1891443      6.0001872      4.5545710
 Standard basis: 6-31G(d,p) (6D, 7F)
 There are    45 symmetry adapted basis functions of A   symmetry.
 There are    45 symmetry adapted basis functions of B   symmetry.
 Integral buffers will be    131072 words long.
 Raffenetti 2 integral format.
 Two-electron integral symmetry is turned on.
    90 basis functions,   154 primitive gaussians,    90 cartesian basis functions
    17 alpha electrons       17 beta electrons
       nuclear repulsion energy       133.9330477452 Hartrees.
 NAtoms=   10 NActive=   10 NUniq=    5 SFac= 3.00D+00 NAtFMM=   80 NAOKFM=F Big=F
 One-electron integrals computed using PRISM.
 NBasis=    90 RedAO= T  NBF=    45    45
 NBsUse=    90 1.00D-06 NBFU=    45    45
 Projected INDO guess.
 Initial guess orbital symmetries:
       Occupied  (A) (B) (A) (B) (A) (B) (A) (B) (A) (B) (B) (A)
                 (A) (B) (B) (A) (A)
       Virtual   (B) (A) (B) (A) (B) (A) (A) (B) (B) (A) (A) (A)
                 (A) (A) (A) (A) (A) (A) (A) (A) (A) (A) (A) (A)
                 (A) (A) (A) (A) (A) (A) (A) (A) (A) (A) (A) (A)
                 (A) (A) (A) (A) (A) (B) (B) (B) (B) (B) (B) (B)
                 (B) (B) (B) (B) (B) (B) (B) (B) (B) (B) (B) (B)
                 (B) (B) (B) (B) (B) (B) (B) (B) (B) (B) (B) (B)
                 (B)
 The electronic state of the initial guess is 1-A.
 Keep J ints in memory in canonical form, NReq=9445283.
 Gradient too large for Newton-Raphson -- use scaled steepest descent instead.
 Gradient too large for Newton-Raphson -- use scaled steepest descent instead.
 Gradient too large for Newton-Raphson -- use scaled steepest descent instead.
 Gradient too large for Newton-Raphson -- use scaled steepest descent instead.
 Gradient too large for Newton-Raphson -- use scaled steepest descent instead.
 Gradient too large for Newton-Raphson -- use scaled steepest descent instead.
 Gradient too large for Newton-Raphson -- use scaled steepest descent instead.
 LinEq1:  Iter=  0 NonCon=     1 RMS=6.30D-05 Max=7.13D-04
 AX will form     1 AO Fock derivatives at one time.
 LinEq1:  Iter=  1 NonCon=     1 RMS=3.47D-05 Max=3.55D-04
 LinEq1:  Iter=  2 NonCon=     1 RMS=2.86D-06 Max=3.41D-05
 LinEq1:  Iter=  3 NonCon=     1 RMS=1.81D-07 Max=1.74D-06
 LinEq1:  Iter=  4 NonCon=     1 RMS=3.14D-08 Max=2.32D-07
 LinEq1:  Iter=  5 NonCon=     1 RMS=2.32D-08 Max=2.40D-07
 LinEq1:  Iter=  6 NonCon=     0 RMS=2.37D-09 Max=1.99D-08
 Linear equations converged to 4.982D-09 4.982D-08 after     6 iterations.
 LinEq1:  Iter=  0 NonCon=     1 RMS=2.68D-08 Max=4.79D-07
 LinEq1:  Iter=  1 NonCon=     1 RMS=8.72D-09 Max=9.11D-08
 LinEq1:  Iter=  2 NonCon=     1 RMS=3.96D-09 Max=3.59D-08
 LinEq1:  Iter=  3 NonCon=     1 RMS=1.92D-09 Max=2.47D-08
 LinEq1:  Iter=  4 NonCon=     1 RMS=1.06D-09 Max=9.25D-09
 LinEq1:  Iter=  5 NonCon=     1 RMS=2.09D-10 Max=2.40D-09
 LinEq1:  Iter=  6 NonCon=     1 RMS=3.24D-11 Max=2.56D-10
 LinEq1:  Iter=  7 NonCon=     0 RMS=7.53D-12 Max=7.02D-11
 Linear equations converged to 1.050D-11 1.050D-10 after     7 iterations.
 LinEq1:  Iter=  0 NonCon=     1 RMS=1.70D-08 Max=3.04D-07
 LinEq1:  Iter=  1 NonCon=     1 RMS=5.52D-09 Max=5.77D-08
 LinEq1:  Iter=  2 NonCon=     1 RMS=2.51D-09 Max=2.27D-08
 LinEq1:  Iter=  3 NonCon=     1 RMS=1.21D-09 Max=1.56D-08
 LinEq1:  Iter=  4 NonCon=     1 RMS=6.72D-10 Max=5.86D-09
 LinEq1:  Iter=  5 NonCon=     1 RMS=1.32D-10 Max=1.52D-09
 LinEq1:  Iter=  6 NonCon=     1 RMS=2.05D-11 Max=1.61D-10
 LinEq1:  Iter=  7 NonCon=     0 RMS=4.79D-12 Max=4.36D-11
 Linear equations converged to 6.652D-12 6.652D-11 after     7 iterations.
 LinEq1:  Iter=  0 NonCon=     1 RMS=1.29D-08 Max=2.31D-07
 LinEq1:  Iter=  1 NonCon=     1 RMS=4.21D-09 Max=4.40D-08
 LinEq1:  Iter=  2 NonCon=     1 RMS=1.91D-09 Max=1.73D-08
 LinEq1:  Iter=  3 NonCon=     1 RMS=9.25D-10 Max=1.19D-08
 LinEq1:  Iter=  4 NonCon=     1 RMS=5.12D-10 Max=4.47D-09
 LinEq1:  Iter=  5 NonCon=     1 RMS=1.01D-10 Max=1.16D-09
 LinEq1:  Iter=  6 NonCon=     1 RMS=1.56D-11 Max=1.24D-10
 LinEq1:  Iter=  7 NonCon=     0 RMS=3.64D-12 Max=3.35D-11
 Linear equations converged to 5.068D-12 5.068D-11 after     7 iterations.
 SCF Done:  E(RM06L) =  -230.203629554     a.u. after   12 cycles
            Convg  =    0.2413D-06                    72 Fock formations.
              S**2 =  0.0000                  -V/T =  2.0067

 **********************************************************************

            Population analysis using the SCF density.

 **********************************************************************

 Orbital symmetries:
       Occupied  (B) (A) (A) (B) (A) (B) (A) (B) (A) (B) (B) (A)
                 (A) (B) (A) (B) (A)
       Virtual   (A) (B) (A) (B) (B) (A) (B) (A) (B) (A) (A) (B)
                 (B) (B) (A) (A) (B) (B) (A) (A) (A) (B) (B) (A)
                 (B) (A) (A) (B) (B) (A) (B) (A) (B) (A) (B) (A)
                 (A) (B) (A) (B) (A) (A) (B) (B) (A) (B) (B) (B)
                 (A) (B) (A) (A) (B) (B) (A) (A) (B) (A) (B) (A)
                 (B) (A) (B) (A) (B) (B) (A) (A) (B) (A) (B) (A)
                 (B)
 The electronic state is 1-A.
 Alpha  occ. eigenvalues --  -18.97073 -18.97073 -10.10165 -10.10154  -0.99962
 Alpha  occ. eigenvalues --   -0.98144  -0.69892  -0.56854  -0.49745  -0.44417
 Alpha  occ. eigenvalues --   -0.43180  -0.38177  -0.35877  -0.29497  -0.28406
 Alpha  occ. eigenvalues --   -0.23000  -0.20625
 Alpha virt. eigenvalues --    0.06422   0.11740   0.12033   0.12554   0.17332
 Alpha virt. eigenvalues --    0.17588   0.22070   0.22072   0.27823   0.54464
 Alpha virt. eigenvalues --    0.57222   0.57477   0.58317   0.64922   0.73396
 Alpha virt. eigenvalues --    0.76474   0.80027   0.80871   0.81675   0.82582
 Alpha virt. eigenvalues --    0.84877   0.89193   0.93759   0.98883   0.99682
 Alpha virt. eigenvalues --    1.03195   1.08565   1.24698   1.28793   1.34770
 Alpha virt. eigenvalues --    1.43506   1.49409   1.55859   1.59186   1.60973
 Alpha virt. eigenvalues --    1.62608   1.78013   1.82247   1.92948   1.94773
 Alpha virt. eigenvalues --    1.95217   1.96361   1.99060   2.02401   2.15358
 Alpha virt. eigenvalues --    2.24996   2.28124   2.37297   2.38966   2.43793
 Alpha virt. eigenvalues --    2.51583   2.60178   2.65320   2.71120   2.71654
 Alpha virt. eigenvalues --    2.75070   2.75652   2.79244   2.84683   2.96110
 Alpha virt. eigenvalues --    2.96723   2.97685   3.14396   3.30622   3.43386
 Alpha virt. eigenvalues --    3.46497   3.55637   3.55829   3.56566   3.96033
 Alpha virt. eigenvalues --    4.24335   4.39405   4.70619
          Condensed to atoms (all electrons):
              1          2          3          4          5          6
     1  C    4.769325   0.336071  -0.023021   0.007118   0.239654  -0.047956
     2  C    0.336071   4.769325   0.007118  -0.023021  -0.047956   0.239654
     3  H   -0.023021   0.007118   0.403132   0.000009   0.293661  -0.000028
     4  H    0.007118  -0.023021   0.000009   0.403132  -0.000028   0.293661
     5  O    0.239654  -0.047956   0.293661  -0.000028   8.149376   0.000665
     6  O   -0.047956   0.239654  -0.000028   0.293661   0.000665   8.149376
     7  H    0.383875  -0.045770  -0.005987  -0.000175  -0.039790   0.002290
     8  H    0.386889  -0.046053  -0.005211  -0.000187  -0.043817   0.001338
     9  H   -0.045770   0.383875  -0.000175  -0.005987   0.002290  -0.039790
    10  H   -0.046053   0.386889  -0.000187  -0.005211   0.001338  -0.043817
              7          8          9         10
     1  C    0.383875   0.386889  -0.045770  -0.046053
     2  C   -0.045770  -0.046053   0.383875   0.386889
     3  H   -0.005987  -0.005211  -0.000175  -0.000187
     4  H   -0.000175  -0.000187  -0.005987  -0.005211
     5  O   -0.039790  -0.043817   0.002290   0.001338
     6  O    0.002290   0.001338  -0.039790  -0.043817
     7  H    0.685401  -0.065611   0.005565  -0.012040
     8  H   -0.065611   0.685374  -0.012040   0.006725
     9  H    0.005565  -0.012040   0.685401  -0.065611
    10  H   -0.012040   0.006725  -0.065611   0.685374
 Mulliken atomic charges:
              1
     1  C    0.039868
     2  C    0.039868
     3  H    0.330689
     4  H    0.330689
     5  O   -0.555392
     6  O   -0.555392
     7  H    0.092243
     8  H    0.092592
     9  H    0.092243
    10  H    0.092592
 Sum of Mulliken atomic charges =   0.00000
 Mulliken charges with hydrogens summed into heavy atoms:
              1
     1  C    0.224703
     2  C    0.224703
     5  O   -0.224703
     6  O   -0.224703
 Sum of Mulliken charges with hydrogens summed into heavy atoms =   0.00000
 Electronic spatial extent (au):  <R**2>=            296.3791
 Charge=              0.0000 electrons
 Dipole moment (field-independent basis, Debye):
    X=              0.0000    Y=              0.0000    Z=              2.0962  Tot=              2.0962
 Quadrupole moment (field-independent basis, Debye-Ang):
   XX=            -25.2099   YY=            -14.6785   ZZ=            -26.3717
   XY=              0.4887   XZ=              0.0000   YZ=              0.0000
 Traceless Quadrupole moment (field-independent basis, Debye-Ang):
   XX=             -3.1232   YY=              7.4082   ZZ=             -4.2850
   XY=              0.4887   XZ=              0.0000   YZ=              0.0000
 Octapole moment (field-independent basis, Debye-Ang**2):
  XXX=              0.0000  YYY=              0.0000  ZZZ=             -4.6228  XYY=              0.0000
  XXY=              0.0000  XXZ=             -0.9346  XZZ=              0.0000  YZZ=              0.0000
  YYZ=             -7.6248  XYZ=             -0.5068
 Hexadecapole moment (field-independent basis, Debye-Ang**3):
 XXXX=            -36.1964 YYYY=           -132.0044 ZZZZ=           -103.6831 XXXY=              0.2771
 XXXZ=              0.0000 YYYX=              0.9000 YYYZ=              0.0000 ZZZX=              0.0000
 ZZZY=              0.0000 XXYY=            -42.1223 XXZZ=            -23.1631 YYZZ=            -49.2778
 XXYZ=              0.0000 YYXZ=              0.0000 ZZXY=             -0.2731
 N-N= 1.339330477452D+02 E-N=-8.081739131994D+02  KE= 2.286624223933D+02
 Symmetry A    KE= 1.154276332902D+02
 Symmetry B    KE= 1.132347891031D+02
 1\1\GINC-NODE9\SP\RM06L\6-31G(d,p)\C2H6O2\WUCH\14-Sep-2010\0\\#M06L/6-
 31G** SP SCF=(qc,maxcycle=800) Guess=Indo MaxDisk=32GB\\12-ethanediol 
 Rotatable Bond SP Calculation on node9.bme.utexas.edu\\0,1\C,0,0.05426
 8,0.769013,0.621655\C,0,-0.054268,-0.769013,0.621655\H,0,0.006924,2.21
 6437,-0.640567\H,0,-0.006924,-2.216437,-0.640567\O,0,-0.054268,1.27264
 4,-0.675931\O,0,0.054268,-1.272644,-0.675931\H,0,-0.720851,1.175581,1.
 26784\H,0,1.01187,1.058592,1.050247\H,0,0.720851,-1.175581,1.26784\H,0
 ,-1.01187,-1.058592,1.050247\\Version=EM64L-G09RevA.02\State=1-A\HF=-2
 30.2036296\RMSD=0.000e+00\Dipole=0.,0.,0.8247251\Quadrupole=-2.3220113
 ,5.5078026,-3.1857914,0.36336,0.,0.\PG=C02 [X(C2H6O2)]\\@


 CHEMISTRY BEGAN BY SAYING IT WOULD CHANGE THE BASER
 METALS INTO GOLD.  BY NOT DOING THAT IT HAS DONE MUCH
 GREATER THINGS.  --  RALPH WALDO EMERSON
 Job cpu time:  0 days  0 hours  8 minutes  2.1 seconds.
 File lengths (MBytes):  RWF=      5 Int=      0 D2E=      0 Chk=      1 Scr=      1
 Normal termination of Gaussian 09 at Tue Sep 14 14:37:52 2010.
