 Entering Gaussian System, Link 0=/opt/g09/gaussian/g09/bin/g09
 Input=12-ethanediol-m06lsp-5-1-2-6-163.com
 Output=12-ethanediol-m06lsp-5-1-2-6-163.log
 Initial command:
 /opt/g09/gaussian/g09/bin/l1.exe /scratch/Gau-12-ethanediol/Gau-18973.inp -scrdir=/scratch/Gau-12-ethanediol/
 Entering Link 1 = /opt/g09/gaussian/g09/bin/l1.exe PID=     18974.
  
 Copyright (c) 1988,1990,1992,1993,1995,1998,2003,2009, Gaussian, Inc.
                  All Rights Reserved.
  
 This is part of the Gaussian(R) 09 program.  It is based on
 the Gaussian(R) 03 system (copyright 2003, Gaussian, Inc.),
 the Gaussian(R) 98 system (copyright 1998, Gaussian, Inc.),
 the Gaussian(R) 94 system (copyright 1995, Gaussian, Inc.),
 the Gaussian 92(TM) system (copyright 1992, Gaussian, Inc.),
 the Gaussian 90(TM) system (copyright 1990, Gaussian, Inc.),
 the Gaussian 88(TM) system (copyright 1988, Gaussian, Inc.),
 the Gaussian 86(TM) system (copyright 1986, Carnegie Mellon
 University), and the Gaussian 82(TM) system (copyright 1983,
 Carnegie Mellon University). Gaussian is a federally registered
 trademark of Gaussian, Inc.
  
 This software contains proprietary and confidential information,
 including trade secrets, belonging to Gaussian, Inc.
  
 This software is provided under written license and may be
 used, copied, transmitted, or stored only in accord with that
 written license.
  
 The following legend is applicable only to US Government
 contracts under FAR:
  
                    RESTRICTED RIGHTS LEGEND
  
 Use, reproduction and disclosure by the US Government is
 subject to restrictions as set forth in subparagraphs (a)
 and (c) of the Commercial Computer Software - Restricted
 Rights clause in FAR 52.227-19.
  
 Gaussian, Inc.
 340 Quinnipiac St., Bldg. 40, Wallingford CT 06492
  
  
 ---------------------------------------------------------------
 Warning -- This program may not be used in any manner that
 competes with the business of Gaussian, Inc. or will provide
 assistance to any competitor of Gaussian, Inc.  The licensee
 of this program is prohibited from giving any competitor of
 Gaussian, Inc. access to this program.  By using this program,
 the user acknowledges that Gaussian, Inc. is engaged in the
 business of creating and licensing software in the field of
 computational chemistry and represents and warrants to the
 licensee that it is not a competitor of Gaussian, Inc. and that
 it will not use this program in any manner prohibited above.
 ---------------------------------------------------------------
  

 Cite this work as:
 Gaussian 09, Revision A.02,
 M. J. Frisch, G. W. Trucks, H. B. Schlegel, G. E. Scuseria, 
 M. A. Robb, J. R. Cheeseman, G. Scalmani, V. Barone, B. Mennucci, 
 G. A. Petersson, H. Nakatsuji, M. Caricato, X. Li, H. P. Hratchian, 
 A. F. Izmaylov, J. Bloino, G. Zheng, J. L. Sonnenberg, M. Hada, 
 M. Ehara, K. Toyota, R. Fukuda, J. Hasegawa, M. Ishida, T. Nakajima, 
 Y. Honda, O. Kitao, H. Nakai, T. Vreven, J. A. Montgomery, Jr., 
 J. E. Peralta, F. Ogliaro, M. Bearpark, J. J. Heyd, E. Brothers, 
 K. N. Kudin, V. N. Staroverov, R. Kobayashi, J. Normand, 
 K. Raghavachari, A. Rendell, J. C. Burant, S. S. Iyengar, J. Tomasi, 
 M. Cossi, N. Rega, J. M. Millam, M. Klene, J. E. Knox, J. B. Cross, 
 V. Bakken, C. Adamo, J. Jaramillo, R. Gomperts, R. E. Stratmann, 
 O. Yazyev, A. J. Austin, R. Cammi, C. Pomelli, J. W. Ochterski, 
 R. L. Martin, K. Morokuma, V. G. Zakrzewski, G. A. Voth, 
 P. Salvador, J. J. Dannenberg, S. Dapprich, A. D. Daniels, 
 O. Farkas, J. B. Foresman, J. V. Ortiz, J. Cioslowski, 
 and D. J. Fox, Gaussian, Inc., Wallingford CT, 2009.
 
 ******************************************
 Gaussian 09:  EM64L-G09RevA.02 11-Jun-2009
                14-Sep-2010 
 ******************************************
 %RWF=/scratch/Gau-12-ethanediol/,32GB
 %Nosave
 %Chk=12-ethanediol-m06lsp-5-1-2-6-163.chk
 %Mem=389242KB
 %Nproc=1
 Will use up to    1 processors via shared memory.
 --------------------------------------------------------------
 #M06L/6-31G** SP SCF=(qc,maxcycle=800) Guess=Indo MaxDisk=32GB
 --------------------------------------------------------------
 1/38=1/1;
 2/12=2,17=6,18=5,40=1/2;
 3/5=1,6=6,7=101,11=2,16=1,25=1,30=1,74=-53/1,2,3;
 4/5=4,11=3/1;
 5/5=2,7=800,8=3,38=5/8;
 6/7=2,8=2,9=2,10=2,28=1/1;
 99/5=1,9=1/99;
 -------------------------------------------------------------------
 12-ethanediol Rotatable Bond SP Calculation on node9.bme.utexas.edu
 -------------------------------------------------------------------
 Symbolic Z-matrix:
 Charge =  0 Multiplicity = 1
 C                     0.42781   0.62556   0.09596 
 C                    -0.42781  -0.62556   0.09596 
 H                     0.06551   2.52483  -0.05127 
 H                    -0.06551  -2.52483  -0.05127 
 O                    -0.42781   1.71923  -0.10611 
 O                     0.42781  -1.71923  -0.10611 
 H                     0.97224   0.71096   1.03274 
 H                     1.15326   0.54206  -0.70831 
 H                    -0.97224  -0.71096   1.03274 
 H                    -1.15326  -0.54206  -0.70831 
 
                          Input orientation:                          
 ---------------------------------------------------------------------
 Center     Atomic      Atomic             Coordinates (Angstroms)
 Number     Number       Type             X           Y           Z
 ---------------------------------------------------------------------
      1          6           0        0.427811    0.625562    0.095959
      2          6           0       -0.427811   -0.625562    0.095959
      3          1           0        0.065507    2.524830   -0.051274
      4          1           0       -0.065507   -2.524830   -0.051274
      5          8           0       -0.427811    1.719234   -0.106113
      6          8           0        0.427811   -1.719234   -0.106113
      7          1           0        0.972238    0.710963    1.032739
      8          1           0        1.153262    0.542060   -0.708313
      9          1           0       -0.972238   -0.710963    1.032739
     10          1           0       -1.153262   -0.542060   -0.708313
 ---------------------------------------------------------------------
                    Distance matrix (angstroms):
                    1          2          3          4          5
     1  C    0.000000
     2  C    1.515718   0.000000
     3  H    1.939113   3.192179   0.000000
     4  H    3.192179   1.939113   5.051359   0.000000
     5  O    1.403225   2.353487   0.946232   4.259853   0.000000
     6  O    2.353487   1.403225   4.259853   0.946232   3.543325
     7  H    1.086854   2.150347   2.299426   3.566841   2.067301
     8  H    1.086326   2.123673   2.355056   3.364954   2.061110
     9  H    2.150347   1.086854   3.566841   2.299426   2.738474
    10  H    2.123673   1.086326   3.364954   2.355056   2.449974
                    6          7          8          9         10
     6  O    0.000000
     7  H    2.738474   0.000000
     8  H    2.449974   1.758568   0.000000
     9  H    2.067301   2.408913   3.019781   0.000000
    10  H    2.061110   3.019781   2.548601   1.758568   0.000000
 Stoichiometry    C2H6O2
 Framework group  C2[X(C2H6O2)]
 Deg. of freedom    13
 Full point group                 C2      NOp   2
 Largest Abelian subgroup         C2      NOp   2
 Largest concise Abelian subgroup C2      NOp   2
                         Standard orientation:                         
 ---------------------------------------------------------------------
 Center     Atomic      Atomic             Coordinates (Angstroms)
 Number     Number       Type             X           Y           Z
 ---------------------------------------------------------------------
      1          6           0        0.427811    0.625562    0.095959
      2          6           0       -0.427811   -0.625562    0.095959
      3          1           0        0.065507    2.524830   -0.051274
      4          1           0       -0.065507   -2.524830   -0.051274
      5          8           0       -0.427811    1.719234   -0.106113
      6          8           0        0.427811   -1.719234   -0.106113
      7          1           0        0.972238    0.710963    1.032739
      8          1           0        1.153262    0.542060   -0.708313
      9          1           0       -0.972238   -0.710963    1.032739
     10          1           0       -1.153262   -0.542060   -0.708313
 ---------------------------------------------------------------------
 Rotational constants (GHZ):     30.2719561      4.0743255      3.7927452
 Standard basis: 6-31G(d,p) (6D, 7F)
 There are    45 symmetry adapted basis functions of A   symmetry.
 There are    45 symmetry adapted basis functions of B   symmetry.
 Integral buffers will be    131072 words long.
 Raffenetti 2 integral format.
 Two-electron integral symmetry is turned on.
    90 basis functions,   154 primitive gaussians,    90 cartesian basis functions
    17 alpha electrons       17 beta electrons
       nuclear repulsion energy       131.5025351943 Hartrees.
 NAtoms=   10 NActive=   10 NUniq=    5 SFac= 3.00D+00 NAtFMM=   80 NAOKFM=F Big=F
 One-electron integrals computed using PRISM.
 NBasis=    90 RedAO= T  NBF=    45    45
 NBsUse=    90 1.00D-06 NBFU=    45    45
 Projected INDO guess.
 Initial guess orbital symmetries:
       Occupied  (A) (B) (A) (B) (A) (B) (A) (B) (A) (B) (A) (B)
                 (A) (B) (A) (A) (B)
       Virtual   (B) (B) (A) (A) (A) (B) (B) (B) (A) (A) (A) (A)
                 (A) (A) (A) (A) (A) (A) (A) (A) (A) (A) (A) (A)
                 (A) (A) (A) (A) (A) (A) (A) (A) (A) (A) (A) (A)
                 (A) (A) (A) (A) (A) (B) (B) (B) (B) (B) (B) (B)
                 (B) (B) (B) (B) (B) (B) (B) (B) (B) (B) (B) (B)
                 (B) (B) (B) (B) (B) (B) (B) (B) (B) (B) (B) (B)
                 (B)
 The electronic state of the initial guess is 1-A.
 Keep J ints in memory in canonical form, NReq=9445881.
 Gradient too large for Newton-Raphson -- use scaled steepest descent instead.
 Gradient too large for Newton-Raphson -- use scaled steepest descent instead.
 Gradient too large for Newton-Raphson -- use scaled steepest descent instead.
 Gradient too large for Newton-Raphson -- use scaled steepest descent instead.
 Gradient too large for Newton-Raphson -- use scaled steepest descent instead.
 Gradient too large for Newton-Raphson -- use scaled steepest descent instead.
 Gradient too large for Newton-Raphson -- use scaled steepest descent instead.
 LinEq1:  Iter=  0 NonCon=     1 RMS=5.21D-05 Max=6.35D-04
 AX will form     1 AO Fock derivatives at one time.
 LinEq1:  Iter=  1 NonCon=     1 RMS=2.62D-05 Max=2.92D-04
 LinEq1:  Iter=  2 NonCon=     1 RMS=2.14D-06 Max=2.52D-05
 LinEq1:  Iter=  3 NonCon=     1 RMS=1.47D-07 Max=1.37D-06
 LinEq1:  Iter=  4 NonCon=     1 RMS=2.93D-08 Max=3.24D-07
 LinEq1:  Iter=  5 NonCon=     1 RMS=1.57D-08 Max=1.15D-07
 LinEq1:  Iter=  6 NonCon=     0 RMS=1.95D-09 Max=1.33D-08
 Linear equations converged to 4.982D-09 4.982D-08 after     6 iterations.
 LinEq1:  Iter=  0 NonCon=     1 RMS=1.57D-08 Max=2.35D-07
 LinEq1:  Iter=  1 NonCon=     1 RMS=3.87D-09 Max=3.86D-08
 LinEq1:  Iter=  2 NonCon=     1 RMS=1.94D-09 Max=1.83D-08
 LinEq1:  Iter=  3 NonCon=     1 RMS=9.62D-10 Max=1.05D-08
 LinEq1:  Iter=  4 NonCon=     1 RMS=5.20D-10 Max=5.45D-09
 LinEq1:  Iter=  5 NonCon=     1 RMS=1.22D-10 Max=8.90D-10
 LinEq1:  Iter=  6 NonCon=     1 RMS=2.60D-11 Max=2.88D-10
 LinEq1:  Iter=  7 NonCon=     1 RMS=7.95D-12 Max=7.07D-11
 LinEq1:  Iter=  8 NonCon=     0 RMS=1.71D-12 Max=1.50D-11
 Linear equations converged to 6.320D-12 6.320D-11 after     8 iterations.
 SCF Done:  E(RM06L) =  -230.216152006     a.u. after   10 cycles
            Convg  =    0.1318D-10                    45 Fock formations.
              S**2 =  0.0000                  -V/T =  2.0067

 **********************************************************************

            Population analysis using the SCF density.

 **********************************************************************

 Orbital symmetries:
       Occupied  (A) (B) (A) (B) (A) (B) (A) (B) (B) (A) (A) (A)
                 (B) (B) (A) (B) (A)
       Virtual   (B) (A) (A) (A) (B) (B) (B) (A) (B) (A) (B) (A)
                 (A) (B) (B) (A) (B) (A) (B) (A) (B) (A) (B) (A)
                 (A) (B) (B) (A) (B) (A) (B) (A) (A) (B) (A) (B)
                 (B) (A) (A) (B) (A) (B) (B) (A) (B) (A) (A) (B)
                 (A) (B) (B) (A) (B) (A) (B) (A) (B) (A) (B) (A)
                 (B) (B) (A) (A) (B) (B) (A) (B) (A) (A) (B) (A)
                 (B)
 The electronic state is 1-A.
 Alpha  occ. eigenvalues --  -18.97784 -18.97783 -10.09835 -10.09820  -1.00016
 Alpha  occ. eigenvalues --   -0.99031  -0.70155  -0.56939  -0.49905  -0.45605
 Alpha  occ. eigenvalues --   -0.42701  -0.37883  -0.35814  -0.31308  -0.28338
 Alpha  occ. eigenvalues --   -0.22631  -0.22592
 Alpha virt. eigenvalues --    0.07032   0.10056   0.13946   0.14819   0.16134
 Alpha virt. eigenvalues --    0.18305   0.20947   0.22712   0.25321   0.52214
 Alpha virt. eigenvalues --    0.57271   0.57362   0.59987   0.65020   0.71357
 Alpha virt. eigenvalues --    0.75897   0.77109   0.81985   0.84003   0.84567
 Alpha virt. eigenvalues --    0.86917   0.91660   0.96338   0.97805   1.00782
 Alpha virt. eigenvalues --    1.01696   1.06405   1.24491   1.29392   1.33489
 Alpha virt. eigenvalues --    1.38712   1.48251   1.57436   1.57622   1.60969
 Alpha virt. eigenvalues --    1.62640   1.75545   1.85077   1.92049   1.93613
 Alpha virt. eigenvalues --    1.94698   1.95894   2.02376   2.04940   2.09507
 Alpha virt. eigenvalues --    2.19473   2.30771   2.30980   2.41885   2.43105
 Alpha virt. eigenvalues --    2.48137   2.64163   2.67179   2.69184   2.74389
 Alpha virt. eigenvalues --    2.75891   2.77291   2.78429   2.86537   2.91111
 Alpha virt. eigenvalues --    2.94408   3.06661   3.09413   3.32659   3.38902
 Alpha virt. eigenvalues --    3.45558   3.54463   3.58327   3.58827   3.93759
 Alpha virt. eigenvalues --    4.16013   4.41875   4.70367
          Condensed to atoms (all electrons):
              1          2          3          4          5          6
     1  C    4.786341   0.352737  -0.021417   0.006662   0.217033  -0.051568
     2  C    0.352737   4.786341   0.006662  -0.021417  -0.051568   0.217033
     3  H   -0.021417   0.006662   0.395862   0.000007   0.294800  -0.000107
     4  H    0.006662  -0.021417   0.000007   0.395862  -0.000107   0.294800
     5  O    0.217033  -0.051568   0.294800  -0.000107   8.189179   0.000998
     6  O   -0.051568   0.217033  -0.000107   0.294800   0.000998   8.189179
     7  H    0.376072  -0.037192  -0.005577  -0.000366  -0.038271   0.004201
     8  H    0.386144  -0.050883  -0.004255  -0.000103  -0.038525   0.006732
     9  H   -0.037192   0.376072  -0.000366  -0.005577   0.004201  -0.038271
    10  H   -0.050883   0.386144  -0.000103  -0.004255   0.006732  -0.038525
              7          8          9         10
     1  C    0.376072   0.386144  -0.037192  -0.050883
     2  C   -0.037192  -0.050883   0.376072   0.386144
     3  H   -0.005577  -0.004255  -0.000366  -0.000103
     4  H   -0.000366  -0.000103  -0.005577  -0.004255
     5  O   -0.038271  -0.038525   0.004201   0.006732
     6  O    0.004201   0.006732  -0.038271  -0.038525
     7  H    0.663272  -0.058962  -0.012524   0.007324
     8  H   -0.058962   0.648710   0.007324  -0.008062
     9  H   -0.012524   0.007324   0.663272  -0.058962
    10  H    0.007324  -0.008062  -0.058962   0.648710
 Mulliken atomic charges:
              1
     1  C    0.036072
     2  C    0.036072
     3  H    0.334495
     4  H    0.334495
     5  O   -0.584471
     6  O   -0.584471
     7  H    0.102024
     8  H    0.111881
     9  H    0.102024
    10  H    0.111881
 Sum of Mulliken atomic charges =   0.00000
 Mulliken charges with hydrogens summed into heavy atoms:
              1
     1  C    0.249976
     2  C    0.249976
     5  O   -0.249976
     6  O   -0.249976
 Sum of Mulliken charges with hydrogens summed into heavy atoms =   0.00000
 Electronic spatial extent (au):  <R**2>=            334.5857
 Charge=              0.0000 electrons
 Dipole moment (field-independent basis, Debye):
    X=              0.0000    Y=              0.0000    Z=              0.5146  Tot=              0.5146
 Quadrupole moment (field-independent basis, Debye-Ang):
   XX=            -26.0757   YY=            -17.2655   ZZ=            -25.0616
   XY=              5.7866   XZ=              0.0000   YZ=              0.0000
 Traceless Quadrupole moment (field-independent basis, Debye-Ang):
   XX=             -3.2748   YY=              5.5354   ZZ=             -2.2607
   XY=              5.7866   XZ=              0.0000   YZ=              0.0000
 Octapole moment (field-independent basis, Debye-Ang**2):
  XXX=              0.0000  YYY=              0.0000  ZZZ=             -0.2708  XYY=              0.0000
  XXY=              0.0000  XXZ=             -0.3518  XZZ=              0.0000  YZZ=              0.0000
  YYZ=              0.4752  XYZ=             -0.3942
 Hexadecapole moment (field-independent basis, Debye-Ang**3):
 XXXX=            -67.3451 YYYY=           -170.8510 ZZZZ=            -36.8242 XXXY=             11.2612
 XXXZ=              0.0000 YYYX=             28.7781 YYYZ=              0.0000 ZZZX=              0.0000
 ZZZY=              0.0000 XXYY=            -61.7708 XXZZ=            -16.5786 YYZZ=            -54.9905
 XXYZ=              0.0000 YYXZ=              0.0000 ZZXY=              4.4545
 N-N= 1.315025351943D+02 E-N=-8.032307912620D+02  KE= 2.286783948346D+02
 Symmetry A    KE= 1.158757596390D+02
 Symmetry B    KE= 1.128026351956D+02
 1\1\GINC-NODE9\SP\RM06L\6-31G(d,p)\C2H6O2\WUCH\14-Sep-2010\0\\#M06L/6-
 31G** SP SCF=(qc,maxcycle=800) Guess=Indo MaxDisk=32GB\\12-ethanediol 
 Rotatable Bond SP Calculation on node9.bme.utexas.edu\\0,1\C,0,0.42781
 1,0.625562,0.095959\C,0,-0.427811,-0.625562,0.095959\H,0,0.065507,2.52
 483,-0.051274\H,0,-0.065507,-2.52483,-0.051274\O,0,-0.427811,1.719234,
 -0.106113\O,0,0.427811,-1.719234,-0.106113\H,0,0.972238,0.710963,1.032
 739\H,0,1.153262,0.54206,-0.708313\H,0,-0.972238,-0.710963,1.032739\H,
 0,-1.153262,-0.54206,-0.708313\\Version=EM64L-G09RevA.02\State=1-A\HF=
 -230.216152\RMSD=0.000e+00\Dipole=0.,0.,0.2024456\Quadrupole=-2.434712
 2,4.1154532,-1.680741,4.3021604,0.,0.\PG=C02 [X(C2H6O2)]\\@



 WE LOSE BECAUSE WE WIN

 GAMBLERS,

 RECOLLECTING WHICH,

 TOSS THEIR DICE AGAIN....


                          EMILY DICKINSON  BOLTS OF MELODY NO. 533
 Job cpu time:  0 days  0 hours  4 minutes 48.8 seconds.
 File lengths (MBytes):  RWF=      5 Int=      0 D2E=      0 Chk=      1 Scr=      1
 Normal termination of Gaussian 09 at Tue Sep 14 14:12:40 2010.
