 Entering Gaussian System, Link 0=/opt/g09/gaussian/g09/bin/g09
 Input=12-ethanediol-opt-5-1-2-6-223.com
 Output=12-ethanediol-opt-5-1-2-6-223.log
 Initial command:
 /opt/g09/gaussian/g09/bin/l1.exe /scratch/Gau-12-ethanediol/Gau-19177.inp -scrdir=/scratch/Gau-12-ethanediol/
 Entering Link 1 = /opt/g09/gaussian/g09/bin/l1.exe PID=     19178.
  
 Copyright (c) 1988,1990,1992,1993,1995,1998,2003,2009, Gaussian, Inc.
                  All Rights Reserved.
  
 This is part of the Gaussian(R) 09 program.  It is based on
 the Gaussian(R) 03 system (copyright 2003, Gaussian, Inc.),
 the Gaussian(R) 98 system (copyright 1998, Gaussian, Inc.),
 the Gaussian(R) 94 system (copyright 1995, Gaussian, Inc.),
 the Gaussian 92(TM) system (copyright 1992, Gaussian, Inc.),
 the Gaussian 90(TM) system (copyright 1990, Gaussian, Inc.),
 the Gaussian 88(TM) system (copyright 1988, Gaussian, Inc.),
 the Gaussian 86(TM) system (copyright 1986, Carnegie Mellon
 University), and the Gaussian 82(TM) system (copyright 1983,
 Carnegie Mellon University). Gaussian is a federally registered
 trademark of Gaussian, Inc.
  
 This software contains proprietary and confidential information,
 including trade secrets, belonging to Gaussian, Inc.
  
 This software is provided under written license and may be
 used, copied, transmitted, or stored only in accord with that
 written license.
  
 The following legend is applicable only to US Government
 contracts under FAR:
  
                    RESTRICTED RIGHTS LEGEND
  
 Use, reproduction and disclosure by the US Government is
 subject to restrictions as set forth in subparagraphs (a)
 and (c) of the Commercial Computer Software - Restricted
 Rights clause in FAR 52.227-19.
  
 Gaussian, Inc.
 340 Quinnipiac St., Bldg. 40, Wallingford CT 06492
  
  
 ---------------------------------------------------------------
 Warning -- This program may not be used in any manner that
 competes with the business of Gaussian, Inc. or will provide
 assistance to any competitor of Gaussian, Inc.  The licensee
 of this program is prohibited from giving any competitor of
 Gaussian, Inc. access to this program.  By using this program,
 the user acknowledges that Gaussian, Inc. is engaged in the
 business of creating and licensing software in the field of
 computational chemistry and represents and warrants to the
 licensee that it is not a competitor of Gaussian, Inc. and that
 it will not use this program in any manner prohibited above.
 ---------------------------------------------------------------
  

 Cite this work as:
 Gaussian 09, Revision A.02,
 M. J. Frisch, G. W. Trucks, H. B. Schlegel, G. E. Scuseria, 
 M. A. Robb, J. R. Cheeseman, G. Scalmani, V. Barone, B. Mennucci, 
 G. A. Petersson, H. Nakatsuji, M. Caricato, X. Li, H. P. Hratchian, 
 A. F. Izmaylov, J. Bloino, G. Zheng, J. L. Sonnenberg, M. Hada, 
 M. Ehara, K. Toyota, R. Fukuda, J. Hasegawa, M. Ishida, T. Nakajima, 
 Y. Honda, O. Kitao, H. Nakai, T. Vreven, J. A. Montgomery, Jr., 
 J. E. Peralta, F. Ogliaro, M. Bearpark, J. J. Heyd, E. Brothers, 
 K. N. Kudin, V. N. Staroverov, R. Kobayashi, J. Normand, 
 K. Raghavachari, A. Rendell, J. C. Burant, S. S. Iyengar, J. Tomasi, 
 M. Cossi, N. Rega, J. M. Millam, M. Klene, J. E. Knox, J. B. Cross, 
 V. Bakken, C. Adamo, J. Jaramillo, R. Gomperts, R. E. Stratmann, 
 O. Yazyev, A. J. Austin, R. Cammi, C. Pomelli, J. W. Ochterski, 
 R. L. Martin, K. Morokuma, V. G. Zakrzewski, G. A. Voth, 
 P. Salvador, J. J. Dannenberg, S. Dapprich, A. D. Daniels, 
 O. Farkas, J. B. Foresman, J. V. Ortiz, J. Cioslowski, 
 and D. J. Fox, Gaussian, Inc., Wallingford CT, 2009.
 
 ******************************************
 Gaussian 09:  EM64L-G09RevA.02 11-Jun-2009
                14-Sep-2010 
 ******************************************
 %RWF=/scratch/Gau-12-ethanediol/,32GB
 %Nosave
 %Chk=12-ethanediol-opt-5-1-2-6-223.chk
 %Mem=389242KB
 %Nproc=1
 Will use up to    1 processors via shared memory.
 ----------------------------------
 #HF/6-31G* Opt=ModRed MaxDisk=32GB
 ----------------------------------
 1/18=120,19=15,38=1/1,3;
 2/9=110,12=2,17=6,18=5,40=1/2;
 3/5=1,6=6,7=1,11=9,16=1,25=1,30=1,71=1/1,2,3;
 4//1;
 5/5=2,38=5/2;
 6/7=2,8=2,9=2,10=2,28=1/1;
 7//1,2,3,16;
 1/18=20,19=15/3(2);
 2/9=110/2;
 99//99;
 2/9=110/2;
 3/5=1,6=6,7=1,11=9,16=1,25=1,30=1,71=1/1,2,3;
 4/5=5,16=3/1;
 5/5=2,38=5/2;
 7//1,2,3,16;
 1/18=20,19=15/3(-5);
 2/9=110/2;
 6/7=2,8=2,9=2,10=2,19=2,28=1/1;
 99/9=1/99;
 -----------------------------------------------------------------
 12-ethanediol Rotatable Bond Optimization on node9.bme.utexas.edu
 -----------------------------------------------------------------
 Symbolic Z-matrix:
 Charge =  0 Multiplicity = 1
 C                    -0.42968   0.62358   0.0698 
 C                     0.42968  -0.62358   0.0698 
 H                    -0.06869   2.52559  -0.03336 
 H                     0.06869  -2.52559  -0.03336 
 O                     0.42968   1.72252  -0.07763 
 O                    -0.42968  -1.72252  -0.07763 
 H                    -1.13167   0.55876  -0.75692 
 H                    -1.00118   0.68236   0.99245 
 H                     1.13167  -0.55876  -0.75692 
 H                     1.00118  -0.68236   0.99245 
 
 The following ModRedundant input section has been read:
 D    5    1    2    6 222.64 F                                                
 Iteration  1 RMS(Cart)=  0.02704418 RMS(Int)=  0.07465220
 Iteration  2 RMS(Cart)=  0.00996487 RMS(Int)=  0.07185169
 Iteration  3 RMS(Cart)=  0.00365942 RMS(Int)=  0.07098037
 Iteration  4 RMS(Cart)=  0.00134881 RMS(Int)=  0.07068198
 Iteration  5 RMS(Cart)=  0.00049739 RMS(Int)=  0.07057510
 Iteration  6 RMS(Cart)=  0.00018343 RMS(Int)=  0.07053612
 Iteration  7 RMS(Cart)=  0.00006765 RMS(Int)=  0.07052180
 Iteration  8 RMS(Cart)=  0.00002495 RMS(Int)=  0.07051653
 Iteration  9 RMS(Cart)=  0.00000920 RMS(Int)=  0.07051458
 Iteration 10 RMS(Cart)=  0.00000339 RMS(Int)=  0.07051387
 Iteration 11 RMS(Cart)=  0.00000125 RMS(Int)=  0.07051360
 Iteration 12 RMS(Cart)=  0.00000046 RMS(Int)=  0.07051351
 Iteration  1 RMS(Cart)=  0.02700934 RMS(Int)=  0.05628985
 Iteration  2 RMS(Cart)=  0.02700919 RMS(Int)=  0.05248268
 Iteration  3 RMS(Cart)=  0.02700907 RMS(Int)=  0.05581428
 Iteration  4 RMS(Cart)=  0.02513916 RMS(Int)=  0.06439229
 Iteration  5 RMS(Cart)=  0.01590108 RMS(Int)=  0.07172180
 Iteration  6 RMS(Cart)=  0.01006093 RMS(Int)=  0.07689862
 Iteration  7 RMS(Cart)=  0.00636831 RMS(Int)=  0.08034750
 Iteration  8 RMS(Cart)=  0.00403235 RMS(Int)=  0.08259111
 Iteration  9 RMS(Cart)=  0.00255389 RMS(Int)=  0.08403404
 Iteration 10 RMS(Cart)=  0.00161779 RMS(Int)=  0.08495641
 Iteration 11 RMS(Cart)=  0.00102493 RMS(Int)=  0.08554399
 Iteration 12 RMS(Cart)=  0.00064938 RMS(Int)=  0.08591754
 Iteration 13 RMS(Cart)=  0.00041146 RMS(Int)=  0.08615473
 Iteration 14 RMS(Cart)=  0.00026071 RMS(Int)=  0.08630522
 Iteration 15 RMS(Cart)=  0.00016520 RMS(Int)=  0.08640066
 Iteration 16 RMS(Cart)=  0.00010468 RMS(Int)=  0.08646116
 Iteration 17 RMS(Cart)=  0.00006633 RMS(Int)=  0.08649952
 Iteration 18 RMS(Cart)=  0.00004203 RMS(Int)=  0.08652382
 Iteration 19 RMS(Cart)=  0.00002663 RMS(Int)=  0.08653923
 Iteration 20 RMS(Cart)=  0.00001688 RMS(Int)=  0.08654899
 Iteration 21 RMS(Cart)=  0.00001069 RMS(Int)=  0.08655518
 Iteration 22 RMS(Cart)=  0.00000678 RMS(Int)=  0.08655910
 Iteration 23 RMS(Cart)=  0.00000429 RMS(Int)=  0.08656159
 Iteration 24 RMS(Cart)=  0.00000272 RMS(Int)=  0.08656316
 Iteration 25 RMS(Cart)=  0.00000172 RMS(Int)=  0.08656416
 Iteration 26 RMS(Cart)=  0.00000109 RMS(Int)=  0.08656479
 Iteration 27 RMS(Cart)=  0.00000069 RMS(Int)=  0.08656519

 GradGradGradGradGradGradGradGradGradGradGradGradGradGradGradGradGradGrad
 Berny optimization.
 Initialization pass.
                           ----------------------------
                           !    Initial Parameters    !
                           ! (Angstroms and Degrees)  !
 --------------------------                            --------------------------
 ! Name  Definition              Value          Derivative Info.                !
 --------------------------------------------------------------------------------
 ! R1    R(1,2)                  1.5146         estimate D2E/DX2                !
 ! R2    R(1,5)                  1.4066         estimate D2E/DX2                !
 ! R3    R(1,7)                  1.0865         estimate D2E/DX2                !
 ! R4    R(1,8)                  1.087          estimate D2E/DX2                !
 ! R5    R(2,6)                  1.4066         estimate D2E/DX2                !
 ! R6    R(2,9)                  1.0865         estimate D2E/DX2                !
 ! R7    R(2,10)                 1.087          estimate D2E/DX2                !
 ! R8    R(3,5)                  0.9468         estimate D2E/DX2                !
 ! R9    R(4,6)                  0.9468         estimate D2E/DX2                !
 ! A1    A(2,1,5)              107.3779         estimate D2E/DX2                !
 ! A2    A(2,1,7)              105.6832         estimate D2E/DX2                !
 ! A3    A(2,1,8)              112.1439         estimate D2E/DX2                !
 ! A4    A(5,1,7)               98.8171         estimate D2E/DX2                !
 ! A5    A(5,1,8)              122.6491         estimate D2E/DX2                !
 ! A6    A(7,1,8)              108.2276         estimate D2E/DX2                !
 ! A7    A(1,2,6)              107.3779         estimate D2E/DX2                !
 ! A8    A(1,2,9)              105.6832         estimate D2E/DX2                !
 ! A9    A(1,2,10)             112.1439         estimate D2E/DX2                !
 ! A10   A(6,2,9)               98.8171         estimate D2E/DX2                !
 ! A11   A(6,2,10)             122.6491         estimate D2E/DX2                !
 ! A12   A(9,2,10)             108.2276         estimate D2E/DX2                !
 ! A13   A(1,5,3)              109.798          estimate D2E/DX2                !
 ! A14   A(2,6,4)              109.798          estimate D2E/DX2                !
 ! D1    D(5,1,2,6)           -137.3602         Frozen                          !
 ! D2    D(5,1,2,9)            -32.6049         estimate D2E/DX2                !
 ! D3    D(5,1,2,10)            85.1066         estimate D2E/DX2                !
 ! D4    D(7,1,2,6)            -32.6049         estimate D2E/DX2                !
 ! D5    D(7,1,2,9)             72.1504         estimate D2E/DX2                !
 ! D6    D(7,1,2,10)          -170.1382         estimate D2E/DX2                !
 ! D7    D(8,1,2,6)             85.1066         estimate D2E/DX2                !
 ! D8    D(8,1,2,9)           -170.1382         estimate D2E/DX2                !
 ! D9    D(8,1,2,10)           -52.4267         estimate D2E/DX2                !
 ! D10   D(2,1,5,3)            176.3902         estimate D2E/DX2                !
 ! D11   D(7,1,5,3)             66.8068         estimate D2E/DX2                !
 ! D12   D(8,1,5,3)            -51.5733         estimate D2E/DX2                !
 ! D13   D(1,2,6,4)            176.3902         estimate D2E/DX2                !
 ! D14   D(9,2,6,4)             66.8068         estimate D2E/DX2                !
 ! D15   D(10,2,6,4)           -51.5733         estimate D2E/DX2                !
 --------------------------------------------------------------------------------
 Trust Radius=3.00D-01 FncErr=1.00D-07 GrdErr=1.00D-07
 Number of steps in this run=  48 maximum allowed number of steps= 100.
 GradGradGradGradGradGradGradGradGradGradGradGradGradGradGradGradGradGrad

                          Input orientation:                          
 ---------------------------------------------------------------------
 Center     Atomic      Atomic             Coordinates (Angstroms)
 Number     Number       Type             X           Y           Z
 ---------------------------------------------------------------------
      1          6           0       -0.412270    0.635256    0.235941
      2          6           0        0.412270   -0.635256    0.235941
      3          1           0       -0.091438    2.469954   -0.319111
      4          1           0        0.091437   -2.469954   -0.319111
      5          8           0        0.408038    1.668468   -0.252137
      6          8           0       -0.408038   -1.668468   -0.252137
      7          1           0       -1.088879    0.546295   -0.609563
      8          1           0       -1.008379    0.736846    1.139224
      9          1           0        1.088879   -0.546295   -0.609563
     10          1           0        1.008379   -0.736846    1.139224
 ---------------------------------------------------------------------
                    Distance matrix (angstroms):
                    1          2          3          4          5
     1  C    0.000000
     2  C    1.514618   0.000000
     3  H    1.943484   3.194391   0.000000
     4  H    3.194391   1.943484   4.943292   0.000000
     5  O    1.406645   2.354863   0.946754   4.151055   0.000000
     6  O    2.354863   1.406645   4.151055   0.946754   3.435275
     7  H    1.086550   2.089112   2.186256   3.251964   1.904675
     8  H    1.087008   2.171826   2.443601   3.690515   2.193180
     9  H    2.089112   1.086550   3.251964   2.186256   2.344456
    10  H    2.171826   1.087008   3.690515   2.443601   2.842855
                    6          7          8          9         10
     6  O    0.000000
     7  H    2.344456   0.000000
     8  H    2.842855   1.760978   0.000000
     9  H    1.904675   2.436469   3.017150   0.000000
    10  H    2.193180   3.017150   2.497814   1.760978   0.000000
 Stoichiometry    C2H6O2
 Framework group  C2[X(C2H6O2)]
 Deg. of freedom    13
 Full point group                 C2      NOp   2
 Largest Abelian subgroup         C2      NOp   2
 Largest concise Abelian subgroup C2      NOp   2
                         Standard orientation:                         
 ---------------------------------------------------------------------
 Center     Atomic      Atomic             Coordinates (Angstroms)
 Number     Number       Type             X           Y           Z
 ---------------------------------------------------------------------
      1          6           0       -0.717882    0.241171    0.258935
      2          6           0        0.717882   -0.241171    0.258935
      3          1           0       -1.607422    1.877559   -0.296117
      4          1           0        1.607422   -1.877559   -0.296117
      5          8           0       -0.717882    1.560425   -0.229143
      6          8           0        0.717882   -1.560425   -0.229143
      7          1           0       -1.192471   -0.249215   -0.586569
      8          1           0       -1.247909   -0.049925    1.162218
      9          1           0        1.192471    0.249215   -0.586569
     10          1           0        1.247909    0.049925    1.162218
 ---------------------------------------------------------------------
 Rotational constants (GHZ):     26.2927468      4.1723858      3.9921755
 Standard basis: 6-31G(d) (6D, 7F)
 There are    36 symmetry adapted basis functions of A   symmetry.
 There are    36 symmetry adapted basis functions of B   symmetry.
 Integral buffers will be    131072 words long.
 Raffenetti 1 integral format.
 Two-electron integral symmetry is turned on.
    72 basis functions,   136 primitive gaussians,    72 cartesian basis functions
    17 alpha electrons       17 beta electrons
       nuclear repulsion energy       131.9246771630 Hartrees.
 NAtoms=   10 NActive=   10 NUniq=    5 SFac= 3.00D+00 NAtFMM=   80 NAOKFM=F Big=F
 One-electron integrals computed using PRISM.
 NBasis=    72 RedAO= T  NBF=    36    36
 NBsUse=    72 1.00D-06 NBFU=    36    36
 Harris functional with IExCor=  205 diagonalized for initial guess.
 ExpMin= 1.61D-01 ExpMax= 5.48D+03 ExpMxC= 8.25D+02 IAcc=1 IRadAn=         1 AccDes= 0.00D+00
 HarFok:  IExCor=  205 AccDes= 0.00D+00 IRadAn=         1 IDoV= 1
 ScaDFX=  1.000000  1.000000  1.000000  1.000000
 FoFCou: FMM=F IPFlag=           0 FMFlag=      100000 FMFlg1=           0
         NFxFlg=           0 DoJE=T BraDBF=F KetDBF=T FulRan=T
         Omega=  0.000000  0.000000  1.000000  0.000000  0.000000 ICntrl=     500 IOpCl=  0
         NMat0=    1 NMatS0=    1 NMatT0=    0 NMatD0=    1 NMtDS0=    0 NMtDT0=    0
         I1Cent=           4 NGrid=           0.
 Petite list used in FoFCou.
 Initial guess orbital symmetries:
       Occupied  (B) (A) (A) (B) (A) (B) (A) (B) (B) (A) (A) (A)
                 (B) (B) (A) (A) (B)
       Virtual   (B) (A) (A) (B) (A) (B) (B) (A) (B) (A) (B) (A)
                 (A) (B) (B) (A) (B) (A) (B) (A) (A) (B) (B) (A)
                 (A) (B) (B) (A) (B) (A) (B) (A) (A) (B) (B) (A)
                 (A) (B) (A) (B) (B) (A) (B) (A) (B) (A) (B) (A)
                 (B) (A) (B) (A) (B) (A) (B)
 The electronic state of the initial guess is 1-A.
 Requested convergence on RMS density matrix=1.00D-08 within 128 cycles.
 Requested convergence on MAX density matrix=1.00D-06.
 Requested convergence on             energy=1.00D-06.
 No special actions if energy rises.
 Keep R1 ints in memory in canonical form, NReq=4309302.
 SCF Done:  E(RHF) =  -228.895912833     A.U. after   11 cycles
             Convg  =    0.8328D-08             -V/T =  2.0013

 **********************************************************************

            Population analysis using the SCF density.

 **********************************************************************

 Orbital symmetries:
       Occupied  (A) (B) (A) (B) (A) (B) (A) (B) (B) (A) (A) (B)
                 (A) (B) (A) (A) (B)
       Virtual   (B) (A) (A) (A) (B) (B) (B) (A) (B) (A) (A) (B)
                 (A) (B) (B) (B) (A) (A) (A) (B) (A) (B) (B) (A)
                 (B) (A) (B) (A) (B) (A) (A) (B) (A) (B) (B) (A)
                 (B) (A) (A) (B) (B) (A) (B) (A) (B) (A) (B) (A)
                 (B) (A) (B) (A) (B) (A) (B)
 The electronic state is 1-A.
 Alpha  occ. eigenvalues --  -20.55675 -20.55675 -11.26727 -11.26663  -1.37104
 Alpha  occ. eigenvalues --   -1.35619  -0.99756  -0.83208  -0.72048  -0.69457
 Alpha  occ. eigenvalues --   -0.64216  -0.58416  -0.57709  -0.53186  -0.47751
 Alpha  occ. eigenvalues --   -0.43730  -0.42779
 Alpha virt. eigenvalues --    0.21524   0.23799   0.28852   0.31307   0.31466
 Alpha virt. eigenvalues --    0.33168   0.39532   0.43862   0.46790   0.72621
 Alpha virt. eigenvalues --    0.79217   0.81062   0.84309   0.90560   0.96414
 Alpha virt. eigenvalues --    1.07153   1.08748   1.09214   1.13338   1.15485
 Alpha virt. eigenvalues --    1.20554   1.20634   1.25760   1.29247   1.30850
 Alpha virt. eigenvalues --    1.31047   1.39351   1.54802   1.55678   1.69444
 Alpha virt. eigenvalues --    1.75674   1.77248   1.97618   1.99584   2.01163
 Alpha virt. eigenvalues --    2.09004   2.22230   2.25117   2.29619   2.34495
 Alpha virt. eigenvalues --    2.41186   2.54816   2.69161   2.76198   2.78045
 Alpha virt. eigenvalues --    2.78370   2.88664   2.92675   2.94963   3.22384
 Alpha virt. eigenvalues --    3.24989   4.14134   4.21009   4.63041   4.88478
          Condensed to atoms (all electrons):
              1          2          3          4          5          6
     1  C    4.845775   0.340857  -0.022817   0.006567   0.193796  -0.051039
     2  C    0.340857   4.845775   0.006567  -0.022817  -0.051039   0.193796
     3  H   -0.022817   0.006567   0.320040   0.000008   0.262801  -0.000144
     4  H    0.006567  -0.022817   0.000008   0.320040  -0.000144   0.262801
     5  O    0.193796  -0.051039   0.262801  -0.000144   8.413668   0.001367
     6  O   -0.051039   0.193796  -0.000144   0.262801   0.001367   8.413668
     7  H    0.427728  -0.057238  -0.004001   0.000091  -0.057572   0.005636
     8  H    0.373391  -0.038369  -0.003008  -0.000354  -0.023699   0.003012
     9  H   -0.057238   0.427728   0.000091  -0.004001   0.005636  -0.057572
    10  H   -0.038369   0.373391  -0.000354  -0.003008   0.003012  -0.023699
              7          8          9         10
     1  C    0.427728   0.373391  -0.057238  -0.038369
     2  C   -0.057238  -0.038369   0.427728   0.373391
     3  H   -0.004001  -0.003008   0.000091  -0.000354
     4  H    0.000091  -0.000354  -0.004001  -0.003008
     5  O   -0.057572  -0.023699   0.005636   0.003012
     6  O    0.005636   0.003012  -0.057572  -0.023699
     7  H    0.553912  -0.039912  -0.003491   0.004847
     8  H   -0.039912   0.572447   0.004847  -0.004015
     9  H   -0.003491   0.004847   0.553912  -0.039912
    10  H    0.004847  -0.004015  -0.039912   0.572447
 Mulliken atomic charges:
              1
     1  C   -0.018651
     2  C   -0.018651
     3  H    0.440818
     4  H    0.440818
     5  O   -0.747825
     6  O   -0.747825
     7  H    0.169999
     8  H    0.155659
     9  H    0.169999
    10  H    0.155659
 Sum of Mulliken atomic charges =   0.00000
 Mulliken charges with hydrogens summed into heavy atoms:
              1
     1  C    0.307007
     2  C    0.307007
     5  O   -0.307007
     6  O   -0.307007
 Sum of Mulliken charges with hydrogens summed into heavy atoms =   0.00000
 Electronic spatial extent (au):  <R**2>=            328.7928
 Charge=              0.0000 electrons
 Dipole moment (field-independent basis, Debye):
    X=              0.0000    Y=              0.0000    Z=              0.7707  Tot=              0.7707
 Quadrupole moment (field-independent basis, Debye-Ang):
   XX=            -16.8375   YY=            -27.7667   ZZ=            -24.8944
   XY=             -5.3535   XZ=              0.0000   YZ=              0.0000
 Traceless Quadrupole moment (field-independent basis, Debye-Ang):
   XX=              6.3287   YY=             -4.6005   ZZ=             -1.7282
   XY=             -5.3535   XZ=              0.0000   YZ=              0.0000
 Octapole moment (field-independent basis, Debye-Ang**2):
  XXX=              0.0000  YYY=              0.0000  ZZZ=             -1.1176  XYY=              0.0000
  XXY=              0.0000  XXZ=             -2.8019  XZZ=              0.0000  YZZ=              0.0000
  YYZ=             -1.4597  XYZ=              2.2805
 Hexadecapole moment (field-independent basis, Debye-Ang**3):
 XXXX=           -101.1585 YYYY=           -205.2173 ZZZZ=            -44.4935 XXXY=             19.5780
 XXXZ=              0.0000 YYYX=             23.5751 YYYZ=              0.0000 ZZZX=              0.0000
 ZZZY=              0.0000 XXYY=            -26.4698 XXZZ=            -26.6141 YYZZ=            -43.1529
 XXYZ=              0.0000 YYXZ=              0.0000 ZZXY=             16.6409
 N-N= 1.319246771630D+02 E-N=-8.036422645985D+02  KE= 2.285954713967D+02
 Symmetry A    KE= 1.157610874358D+02
 Symmetry B    KE= 1.128343839609D+02
 Calling FoFJK, ICntrl=      2127 FMM=F ISym2X=1 I1Cent= 0 IOpClX= 0 NMat=1 NMatS=1 NMatT=0.
 ***** Axes restored to original set *****
 -------------------------------------------------------------------
 Center     Atomic                   Forces (Hartrees/Bohr)
 Number     Number              X              Y              Z
 -------------------------------------------------------------------
      1        6          -0.014608756   -0.011925662   -0.049129117
      2        6           0.014608756    0.011925662   -0.049129117
      3        1          -0.000100962   -0.000255601    0.000994313
      4        1           0.000100962    0.000255601    0.000994313
      5        8           0.013282502    0.015017225    0.031313886
      6        8          -0.013282502   -0.015017225    0.031313886
      7        1          -0.014949798   -0.016523170    0.012613749
      8        1           0.010980294    0.016366635    0.004207170
      9        1           0.014949798    0.016523170    0.012613749
     10        1          -0.010980294   -0.016366635    0.004207170
 -------------------------------------------------------------------
 Cartesian Forces:  Max     0.049129117 RMS     0.018645151

 GradGradGradGradGradGradGradGradGradGradGradGradGradGradGradGradGradGrad
 Berny optimization.
 Internal  Forces:  Max     0.034286773 RMS     0.011606706
 Search for a local minimum.
 Step number   1 out of a maximum of   48
 All quantities printed in internal units (Hartrees-Bohrs-Radians)
 Mixed Optimization -- RFO/linear search
 Second derivative matrix not updated -- first step.
     Eigenvalues ---    0.01604   0.01604   0.01975   0.04686   0.06155
     Eigenvalues ---    0.06679   0.11174   0.11194   0.13500   0.13834
     Eigenvalues ---    0.16000   0.16000   0.21982   0.21985   0.30891
     Eigenvalues ---    0.35161   0.35161   0.35214   0.35214   0.44537
     Eigenvalues ---    0.44537   0.58423   0.584231000.000001000.00000
     Eigenvalues --- 1000.000001000.000001000.000001000.000001000.00000
     Eigenvalues --- 1000.000001000.000001000.000001000.000001000.00000
     Eigenvalues --- 1000.000001000.000001000.00000
 RFO step:  Lambda=-2.59219309D-02 EMin= 1.60387577D-02
 Linear search not attempted -- first point.
 Maximum step size (   0.300) exceeded in Quadratic search.
    -- Step size scaled by   0.437
 Iteration  1 RMS(Cart)=  0.03791245 RMS(Int)=  0.00124977
 Iteration  2 RMS(Cart)=  0.00117244 RMS(Int)=  0.00030169
 Iteration  3 RMS(Cart)=  0.00000036 RMS(Int)=  0.00030169
 Iteration  1 RMS(Cart)=  0.00001232 RMS(Int)=  0.00001184
 Iteration  2 RMS(Cart)=  0.00000779 RMS(Int)=  0.00001314
 Iteration  3 RMS(Cart)=  0.00000492 RMS(Int)=  0.00001506
 Iteration  4 RMS(Cart)=  0.00000311 RMS(Int)=  0.00001657
 Iteration  5 RMS(Cart)=  0.00000197 RMS(Int)=  0.00001761
 Iteration  6 RMS(Cart)=  0.00000124 RMS(Int)=  0.00001829
 Iteration  7 RMS(Cart)=  0.00000078 RMS(Int)=  0.00001874
 ClnCor:  largest displacement from symmetrization is 9.98D-13 for atom     9.
 Variable       Old X    -DE/DX   Delta X   Delta X   Delta X     New X
                                 (Linear)    (Quad)   (Total)
    R1        2.86221   0.00519   0.00000   0.00676   0.00676   2.86898
    R2        2.65817   0.00732   0.00000   0.00678   0.00678   2.66496
    R3        2.05328   0.00085   0.00000   0.00098   0.00098   2.05426
    R4        2.05415  -0.00100   0.00000  -0.00115  -0.00115   2.05299
    R5        2.65817   0.00732   0.00000   0.00678   0.00678   2.66496
    R6        2.05328   0.00085   0.00000   0.00098   0.00098   2.05426
    R7        2.05415  -0.00100   0.00000  -0.00115  -0.00115   2.05299
    R8        1.78911  -0.00023   0.00000  -0.00017  -0.00017   1.78894
    R9        1.78911  -0.00023   0.00000  -0.00017  -0.00017   1.78894
    A1        1.87410   0.00402   0.00000   0.00685   0.00652   1.88062
    A2        1.84452  -0.00503   0.00000  -0.01043  -0.01083   1.83369
    A3        1.95728   0.00585   0.00000   0.00883   0.00845   1.96573
    A4        1.72468   0.02405   0.00000   0.06120   0.06132   1.78600
    A5        2.14063  -0.02308   0.00000  -0.05024  -0.05010   2.09053
    A6        1.88893  -0.00238   0.00000  -0.00702  -0.00656   1.88237
    A7        1.87410   0.00402   0.00000   0.00685   0.00652   1.88062
    A8        1.84452  -0.00503   0.00000  -0.01043  -0.01083   1.83369
    A9        1.95728   0.00585   0.00000   0.00883   0.00845   1.96573
   A10        1.72468   0.02405   0.00000   0.06120   0.06132   1.78600
   A11        2.14063  -0.02308   0.00000  -0.05024  -0.05010   2.09053
   A12        1.88893  -0.00238   0.00000  -0.00702  -0.00656   1.88237
   A13        1.91634  -0.00097   0.00000  -0.00229  -0.00229   1.91405
   A14        1.91634  -0.00097   0.00000  -0.00229  -0.00229   1.91405
    D1       -2.39739  -0.03429   0.00000   0.00000   0.00000  -2.39739
    D2       -0.56906  -0.00804   0.00000   0.06648   0.06646  -0.50260
    D3        1.48539  -0.01084   0.00000   0.05638   0.05643   1.54182
    D4       -0.56906  -0.00804   0.00000   0.06648   0.06646  -0.50260
    D5        1.25926   0.01821   0.00000   0.13295   0.13293   1.39219
    D6       -2.96947   0.01541   0.00000   0.12286   0.12290  -2.84657
    D7        1.48539  -0.01084   0.00000   0.05638   0.05643   1.54182
    D8       -2.96947   0.01541   0.00000   0.12286   0.12290  -2.84657
    D9       -0.91502   0.01260   0.00000   0.11276   0.11287  -0.80215
   D10        3.07859   0.00526   0.00000   0.01924   0.01923   3.09782
   D11        1.16600   0.00028   0.00000   0.00494   0.00422   1.17022
   D12       -0.90012  -0.00411   0.00000  -0.00939  -0.00866  -0.90878
   D13        3.07859   0.00526   0.00000   0.01924   0.01923   3.09782
   D14        1.16600   0.00028   0.00000   0.00494   0.00422   1.17022
   D15       -0.90012  -0.00411   0.00000  -0.00939  -0.00866  -0.90878
         Item               Value     Threshold  Converged?
 Maximum Force            0.017212     0.000450     NO 
 RMS     Force            0.007185     0.000300     NO 
 Maximum Displacement     0.078447     0.001800     NO 
 RMS     Displacement     0.037865     0.001200     NO 
 Predicted change in Energy=-1.000736D-02
 GradGradGradGradGradGradGradGradGradGradGradGradGradGradGradGradGradGrad

                          Input orientation:                          
 ---------------------------------------------------------------------
 Center     Atomic      Atomic             Coordinates (Angstroms)
 Number     Number       Type             X           Y           Z
 ---------------------------------------------------------------------
      1          6           0       -0.411656    0.637786    0.220245
      2          6           0        0.411656   -0.637786    0.220245
      3          1           0       -0.093190    2.480218   -0.316001
      4          1           0        0.093190   -2.480218   -0.316001
      5          8           0        0.406401    1.677544   -0.268067
      6          8           0       -0.406401   -1.677544   -0.268067
      7          1           0       -1.130391    0.510114   -0.585258
      8          1           0       -0.967256    0.776675    1.143435
      9          1           0        1.130391   -0.510114   -0.585258
     10          1           0        0.967256   -0.776675    1.143435
 ---------------------------------------------------------------------
                    Distance matrix (angstroms):
                    1          2          3          4          5
     1  C    0.000000
     2  C    1.518198   0.000000
     3  H    1.945132   3.203807   0.000000
     4  H    3.203807   1.945132   4.963937   0.000000
     5  O    1.410235   2.366269   0.946665   4.169819   0.000000
     6  O    2.366269   1.410235   4.169819   0.946665   3.452138
     7  H    1.087068   2.084328   2.242676   3.242181   1.955820
     8  H    1.086398   2.180454   2.407489   3.723151   2.165833
     9  H    2.084328   1.087068   3.242181   2.242676   2.326074
    10  H    2.180454   1.086398   3.723151   2.407489   2.886189
                    6          7          8          9         10
     6  O    0.000000
     7  H    2.326074   0.000000
     8  H    2.886189   1.756715   0.000000
     9  H    1.955820   2.480323   3.007380   0.000000
    10  H    2.165833   3.007380   2.480975   1.756715   0.000000
 Stoichiometry    C2H6O2
 Framework group  C2[X(C2H6O2)]
 Deg. of freedom    13
 Full point group                 C2      NOp   2
 Largest Abelian subgroup         C2      NOp   2
 Largest concise Abelian subgroup C2      NOp   2
                         Standard orientation:                         
 ---------------------------------------------------------------------
 Center     Atomic      Atomic             Coordinates (Angstroms)
 Number     Number       Type             X           Y           Z
 ---------------------------------------------------------------------
      1          6           0       -0.410208    0.638718    0.254415
      2          6           0        0.410208   -0.638718    0.254415
      3          1           0       -0.087560    2.480424   -0.281831
      4          1           0        0.087560   -2.480424   -0.281831
      5          8           0        0.410208    1.676617   -0.233897
      6          8           0       -0.410208   -1.676617   -0.233897
      7          1           0       -1.129230    0.512679   -0.551088
      8          1           0       -0.965491    0.778869    1.177605
      9          1           0        1.129230   -0.512679   -0.551088
     10          1           0        0.965491   -0.778869    1.177605
 ---------------------------------------------------------------------
 Rotational constants (GHZ):     26.3383344      4.1324615      3.9558190
 Standard basis: 6-31G(d) (6D, 7F)
 There are    36 symmetry adapted basis functions of A   symmetry.
 There are    36 symmetry adapted basis functions of B   symmetry.
 Integral buffers will be    131072 words long.
 Raffenetti 1 integral format.
 Two-electron integral symmetry is turned on.
    72 basis functions,   136 primitive gaussians,    72 cartesian basis functions
    17 alpha electrons       17 beta electrons
       nuclear repulsion energy       131.5387524138 Hartrees.
 NAtoms=   10 NActive=   10 NUniq=    5 SFac= 3.00D+00 NAtFMM=   80 NAOKFM=F Big=F
 One-electron integrals computed using PRISM.
 NBasis=    72 RedAO= T  NBF=    36    36
 NBsUse=    72 1.00D-06 NBFU=    36    36
 Initial guess read from the read-write file.
 B after Tr=     0.000000    0.000000    0.000000
         Rot=    1.000000    0.000000    0.000000    0.000000 Ang=   0.00 deg.
 Initial guess orbital symmetries:
       Occupied  (A) (B) (A) (B) (A) (B) (A) (B) (B) (A) (A) (B)
                 (A) (B) (A) (A) (B)
       Virtual   (B) (A) (A) (A) (B) (B) (B) (A) (B) (A) (A) (B)
                 (A) (B) (B) (B) (A) (A) (A) (B) (A) (B) (B) (A)
                 (B) (A) (B) (A) (B) (A) (A) (B) (A) (B) (B) (A)
                 (B) (A) (A) (B) (B) (A) (B) (A) (B) (A) (B) (A)
                 (B) (A) (B) (A) (B) (A) (B)
 Harris functional with IExCor=  205 diagonalized for initial guess.
 ExpMin= 1.61D-01 ExpMax= 5.48D+03 ExpMxC= 8.25D+02 IAcc=1 IRadAn=         1 AccDes= 0.00D+00
 HarFok:  IExCor=  205 AccDes= 0.00D+00 IRadAn=         1 IDoV= 1
 ScaDFX=  1.000000  1.000000  1.000000  1.000000
 FoFCou: FMM=F IPFlag=           0 FMFlag=      100000 FMFlg1=           0
         NFxFlg=           0 DoJE=T BraDBF=F KetDBF=T FulRan=T
         Omega=  0.000000  0.000000  1.000000  0.000000  0.000000 ICntrl=     500 IOpCl=  0
         NMat0=    1 NMatS0=    1 NMatT0=    0 NMatD0=    1 NMtDS0=    0 NMtDT0=    0
         I1Cent=           4 NGrid=           0.
 Petite list used in FoFCou.
 Requested convergence on RMS density matrix=1.00D-08 within 128 cycles.
 Requested convergence on MAX density matrix=1.00D-06.
 Requested convergence on             energy=1.00D-06.
 No special actions if energy rises.
 Keep R1 ints in memory in canonical form, NReq=4309302.
 SCF Done:  E(RHF) =  -228.905497670     A.U. after   12 cycles
             Convg  =    0.5268D-08             -V/T =  2.0015
 Calling FoFJK, ICntrl=      2127 FMM=F ISym2X=1 I1Cent= 0 IOpClX= 0 NMat=1 NMatS=1 NMatT=0.
 ***** Axes restored to original set *****
 -------------------------------------------------------------------
 Center     Atomic                   Forces (Hartrees/Bohr)
 Number     Number              X              Y              Z
 -------------------------------------------------------------------
      1        6          -0.012820100   -0.009830023   -0.039009195
      2        6           0.012820100    0.009830023   -0.039009195
      3        1          -0.000257692   -0.000234582    0.000763052
      4        1           0.000257692    0.000234582    0.000763052
      5        8           0.006914700    0.006763120    0.025341744
      6        8          -0.006914700   -0.006763120    0.025341744
      7        1          -0.009499838   -0.009146589    0.009824528
      8        1           0.009466380    0.012267496    0.003079871
      9        1           0.009499838    0.009146589    0.009824528
     10        1          -0.009466380   -0.012267496    0.003079871
 -------------------------------------------------------------------
 Cartesian Forces:  Max     0.039009195 RMS     0.014234184

 GradGradGradGradGradGradGradGradGradGradGradGradGradGradGradGradGradGrad
 Berny optimization.
 Using GEDIIS/GDIIS optimizer.
 Internal  Forces:  Max     0.026022652 RMS     0.008360465
 Search for a local minimum.
 Step number   2 out of a maximum of   48
 All quantities printed in internal units (Hartrees-Bohrs-Radians)
 Mixed Optimization -- RFO/linear search
 Update second derivatives using D2CorX and points    1    2
 DE= -9.58D-03 DEPred=-1.00D-02 R= 9.58D-01
 SS=  1.41D+00  RLast= 3.00D-01 DXNew= 5.0454D-01 8.9995D-01
 Trust test= 9.58D-01 RLast= 3.00D-01 DXMaxT set to 5.05D-01
 Use linear search instead of GDIIS.
 Linear search step of   0.592 exceeds DXMaxT=   0.505 but not scaled.
 Quartic linear search produced a step of  2.00000.
 Iteration  1 RMS(Cart)=  0.06680962 RMS(Int)=  0.01381185
 Iteration  2 RMS(Cart)=  0.01062645 RMS(Int)=  0.00174223
 Iteration  3 RMS(Cart)=  0.00011786 RMS(Int)=  0.00173766
 Iteration  4 RMS(Cart)=  0.00000007 RMS(Int)=  0.00173766
 Iteration  1 RMS(Cart)=  0.00003250 RMS(Int)=  0.00003147
 Iteration  2 RMS(Cart)=  0.00002047 RMS(Int)=  0.00003495
 Iteration  3 RMS(Cart)=  0.00001289 RMS(Int)=  0.00004005
 Iteration  4 RMS(Cart)=  0.00000812 RMS(Int)=  0.00004403
 Iteration  5 RMS(Cart)=  0.00000511 RMS(Int)=  0.00004677
 Iteration  6 RMS(Cart)=  0.00000322 RMS(Int)=  0.00004856
 Iteration  7 RMS(Cart)=  0.00000203 RMS(Int)=  0.00004972
 Iteration  8 RMS(Cart)=  0.00000128 RMS(Int)=  0.00005046
 Iteration  9 RMS(Cart)=  0.00000080 RMS(Int)=  0.00005093
 ClnCor:  largest displacement from symmetrization is 1.60D-10 for atom    10.
 Variable       Old X    -DE/DX   Delta X   Delta X   Delta X     New X
                                 (Linear)    (Quad)   (Total)
    R1        2.86898   0.00321   0.01353   0.00000   0.01353   2.88251
    R2        2.66496  -0.00036   0.01357   0.00000   0.01357   2.67853
    R3        2.05426   0.00008   0.00196   0.00000   0.00196   2.05622
    R4        2.05299  -0.00066  -0.00230   0.00000  -0.00230   2.05069
    R5        2.66496  -0.00036   0.01357   0.00000   0.01357   2.67853
    R6        2.05426   0.00008   0.00196   0.00000   0.00196   2.05622
    R7        2.05299  -0.00066  -0.00230   0.00000  -0.00230   2.05069
    R8        1.78894  -0.00010  -0.00033   0.00000  -0.00033   1.78860
    R9        1.78894  -0.00010  -0.00033   0.00000  -0.00033   1.78860
    A1        1.88062   0.00227   0.01304   0.00000   0.01099   1.89161
    A2        1.83369  -0.00110  -0.02167   0.00000  -0.02408   1.80961
    A3        1.96573   0.00351   0.01691   0.00000   0.01477   1.98051
    A4        1.78600   0.01647   0.12264   0.00000   0.12333   1.90933
    A5        2.09053  -0.01703  -0.10020   0.00000  -0.09934   1.99119
    A6        1.88237  -0.00130  -0.01312   0.00000  -0.01049   1.87188
    A7        1.88062   0.00227   0.01304   0.00000   0.01099   1.89161
    A8        1.83369  -0.00110  -0.02167   0.00000  -0.02408   1.80961
    A9        1.96573   0.00351   0.01691   0.00000   0.01477   1.98051
   A10        1.78600   0.01647   0.12264   0.00000   0.12333   1.90933
   A11        2.09053  -0.01703  -0.10020   0.00000  -0.09934   1.99119
   A12        1.88237  -0.00130  -0.01312   0.00000  -0.01049   1.87188
   A13        1.91405  -0.00105  -0.00458   0.00000  -0.00458   1.90947
   A14        1.91405  -0.00105  -0.00458   0.00000  -0.00458   1.90947
    D1       -2.39739  -0.02602  -0.00001   0.00000   0.00000  -2.39739
    D2       -0.50260  -0.00715   0.13293   0.00000   0.13281  -0.36979
    D3        1.54182  -0.00756   0.11287   0.00000   0.11310   1.65492
    D4       -0.50260  -0.00715   0.13293   0.00000   0.13281  -0.36979
    D5        1.39219   0.01173   0.26586   0.00000   0.26561   1.65781
    D6       -2.84657   0.01131   0.24580   0.00000   0.24590  -2.60067
    D7        1.54182  -0.00756   0.11287   0.00000   0.11310   1.65492
    D8       -2.84657   0.01131   0.24580   0.00000   0.24590  -2.60067
    D9       -0.80215   0.01090   0.22574   0.00000   0.22619  -0.57596
   D10        3.09782   0.00518   0.03847   0.00000   0.03858   3.13641
   D11        1.17022  -0.00138   0.00844   0.00000   0.00423   1.17445
   D12       -0.90878  -0.00281  -0.01732   0.00000  -0.01322  -0.92200
   D13        3.09782   0.00518   0.03847   0.00000   0.03858   3.13641
   D14        1.17022  -0.00138   0.00844   0.00000   0.00423   1.17445
   D15       -0.90878  -0.00281  -0.01732   0.00000  -0.01322  -0.92200
         Item               Value     Threshold  Converged?
 Maximum Force            0.010969     0.000450     NO 
 RMS     Force            0.004697     0.000300     NO 
 Maximum Displacement     0.159307     0.001800     NO 
 RMS     Displacement     0.075476     0.001200     NO 
 Predicted change in Energy=-8.919473D-03
 GradGradGradGradGradGradGradGradGradGradGradGradGradGradGradGradGradGrad

                          Input orientation:                          
 ---------------------------------------------------------------------
 Center     Atomic      Atomic             Coordinates (Angstroms)
 Number     Number       Type             X           Y           Z
 ---------------------------------------------------------------------
      1          6           0       -0.411652    0.642045    0.188574
      2          6           0        0.411652   -0.642045    0.188574
      3          1           0       -0.096985    2.498875   -0.310925
      4          1           0        0.096985   -2.498875   -0.310925
      5          8           0        0.401950    1.694640   -0.300468
      6          8           0       -0.401950   -1.694640   -0.300468
      7          1           0       -1.206677    0.438061   -0.525775
      8          1           0       -0.882954    0.853363    1.142948
      9          1           0        1.206677   -0.438061   -0.525775
     10          1           0        0.882954   -0.853363    1.142948
 ---------------------------------------------------------------------
                    Distance matrix (angstroms):
                    1          2          3          4          5
     1  C    0.000000
     2  C    1.525358   0.000000
     3  H    1.948418   3.220806   0.000000
     4  H    3.220806   1.948418   5.001513   0.000000
     5  O    1.417415   2.387332   0.946488   4.204603   0.000000
     6  O    2.387332   1.417415   4.204603   0.946488   3.483314
     7  H    1.088103   2.072658   2.350432   3.220449   2.053639
     8  H    1.085178   2.196152   2.332211   3.783058   2.107647
     9  H    2.072658   1.088103   3.220449   2.350432   2.290581
    10  H    2.196152   1.085178   3.783058   2.332211   2.967682
                    6          7          8          9         10
     6  O    0.000000
     7  H    2.290581   0.000000
     8  H    2.967682   1.749831   0.000000
     9  H    2.053639   2.567463   2.969676   0.000000
    10  H    2.107647   2.969676   2.455880   1.749831   0.000000
 Stoichiometry    C2H6O2
 Framework group  C2[X(C2H6O2)]
 Deg. of freedom    13
 Full point group                 C2      NOp   2
 Largest Abelian subgroup         C2      NOp   2
 Largest concise Abelian subgroup C2      NOp   2
                         Standard orientation:                         
 ---------------------------------------------------------------------
 Center     Atomic      Atomic             Coordinates (Angstroms)
 Number     Number       Type             X           Y           Z
 ---------------------------------------------------------------------
      1          6           0       -0.408983    0.643749    0.245400
      2          6           0        0.408983   -0.643749    0.245400
      3          1           0       -0.086609    2.499256   -0.254099
      4          1           0        0.086609   -2.499256   -0.254099
      5          8           0        0.408983    1.692956   -0.243641
      6          8           0       -0.408983   -1.692956   -0.243641
      7          1           0       -1.204848    0.443067   -0.468949
      8          1           0       -0.879404    0.857022    1.199775
      9          1           0        1.204848   -0.443067   -0.468949
     10          1           0        0.879404   -0.857022    1.199775
 ---------------------------------------------------------------------
 Rotational constants (GHZ):     26.4708433      4.0598792      3.8886173
 Standard basis: 6-31G(d) (6D, 7F)
 There are    36 symmetry adapted basis functions of A   symmetry.
 There are    36 symmetry adapted basis functions of B   symmetry.
 Integral buffers will be    131072 words long.
 Raffenetti 1 integral format.
 Two-electron integral symmetry is turned on.
    72 basis functions,   136 primitive gaussians,    72 cartesian basis functions
    17 alpha electrons       17 beta electrons
       nuclear repulsion energy       130.8552120573 Hartrees.
 NAtoms=   10 NActive=   10 NUniq=    5 SFac= 3.00D+00 NAtFMM=   80 NAOKFM=F Big=F
 One-electron integrals computed using PRISM.
 NBasis=    72 RedAO= T  NBF=    36    36
 NBsUse=    72 1.00D-06 NBFU=    36    36
 Initial guess read from the read-write file.
 B after Tr=     0.000000    0.000000    0.000000
         Rot=    1.000000    0.000000    0.000000    0.000000 Ang=   0.00 deg.
 Initial guess orbital symmetries:
       Occupied  (A) (B) (A) (B) (A) (B) (A) (B) (B) (A) (A) (B)
                 (A) (B) (A) (A) (B)
       Virtual   (B) (A) (A) (A) (B) (B) (B) (A) (B) (A) (A) (B)
                 (A) (B) (B) (B) (A) (A) (A) (B) (B) (A) (B) (A)
                 (A) (B) (B) (A) (B) (A) (A) (B) (A) (B) (B) (A)
                 (B) (A) (A) (B) (B) (A) (B) (B) (A) (A) (B) (A)
                 (B) (A) (B) (A) (B) (A) (B)
 Harris functional with IExCor=  205 diagonalized for initial guess.
 ExpMin= 1.61D-01 ExpMax= 5.48D+03 ExpMxC= 8.25D+02 IAcc=1 IRadAn=         1 AccDes= 0.00D+00
 HarFok:  IExCor=  205 AccDes= 0.00D+00 IRadAn=         1 IDoV= 1
 ScaDFX=  1.000000  1.000000  1.000000  1.000000
 FoFCou: FMM=F IPFlag=           0 FMFlag=      100000 FMFlg1=           0
         NFxFlg=           0 DoJE=T BraDBF=F KetDBF=T FulRan=T
         Omega=  0.000000  0.000000  1.000000  0.000000  0.000000 ICntrl=     500 IOpCl=  0
         NMat0=    1 NMatS0=    1 NMatT0=    0 NMatD0=    1 NMtDS0=    0 NMtDT0=    0
         I1Cent=           4 NGrid=           0.
 Petite list used in FoFCou.
 Requested convergence on RMS density matrix=1.00D-08 within 128 cycles.
 Requested convergence on MAX density matrix=1.00D-06.
 Requested convergence on             energy=1.00D-06.
 No special actions if energy rises.
 Keep R1 ints in memory in canonical form, NReq=4309302.
 SCF Done:  E(RHF) =  -228.914734920     A.U. after   10 cycles
             Convg  =    0.8218D-08             -V/T =  2.0018
 Calling FoFJK, ICntrl=      2127 FMM=F ISym2X=1 I1Cent= 0 IOpClX= 0 NMat=1 NMatS=1 NMatT=0.
 ***** Axes restored to original set *****
 -------------------------------------------------------------------
 Center     Atomic                   Forces (Hartrees/Bohr)
 Number     Number              X              Y              Z
 -------------------------------------------------------------------
      1        6          -0.008492789   -0.006980188   -0.018052131
      2        6           0.008492789    0.006980188   -0.018052131
      3        1          -0.000492166   -0.000106308    0.000326911
      4        1           0.000492166    0.000106308    0.000326911
      5        8          -0.003496167   -0.006693413    0.013102909
      6        8           0.003496167    0.006693413    0.013102909
      7        1          -0.001686347    0.004296301    0.002360140
      8        1           0.005716863    0.003937427    0.002262171
      9        1           0.001686347   -0.004296301    0.002360140
     10        1          -0.005716863   -0.003937427    0.002262171
 -------------------------------------------------------------------
 Cartesian Forces:  Max     0.018052131 RMS     0.007099188

 GradGradGradGradGradGradGradGradGradGradGradGradGradGradGradGradGradGrad
 Berny optimization.
 Using GEDIIS/GDIIS optimizer.
 Internal  Forces:  Max     0.011972498 RMS     0.004598913
 Search for a local minimum.
 Step number   3 out of a maximum of   48
 All quantities printed in internal units (Hartrees-Bohrs-Radians)
 Mixed Optimization -- RFO/linear search
 Update second derivatives using D2CorX and points    2    3
 Use linear search instead of GDIIS.
     Eigenvalues ---    0.01604   0.01604   0.02181   0.05060   0.06498
     Eigenvalues ---    0.06589   0.11081   0.11136   0.13762   0.13803
     Eigenvalues ---    0.16000   0.16005   0.21984   0.22058   0.30812
     Eigenvalues ---    0.35161   0.35161   0.35214   0.35227   0.44537
     Eigenvalues ---    0.46042   0.58423   0.584231000.000001000.00000
     Eigenvalues --- 1000.000001000.000001000.000001000.000001000.00000
     Eigenvalues --- 1000.000001000.000001000.000001000.000001000.00000
     Eigenvalues --- 1000.000001000.000001000.00000
 RFO step:  Lambda=-4.84955455D-03 EMin= 1.60387577D-02
 Quartic linear search produced a step of  0.24013.
 Iteration  1 RMS(Cart)=  0.05516240 RMS(Int)=  0.00357215
 Iteration  2 RMS(Cart)=  0.00287404 RMS(Int)=  0.00094232
 Iteration  3 RMS(Cart)=  0.00000947 RMS(Int)=  0.00094225
 Iteration  4 RMS(Cart)=  0.00000001 RMS(Int)=  0.00094225
 Iteration  1 RMS(Cart)=  0.00003216 RMS(Int)=  0.00003124
 Iteration  2 RMS(Cart)=  0.00002025 RMS(Int)=  0.00003469
 Iteration  3 RMS(Cart)=  0.00001275 RMS(Int)=  0.00003975
 Iteration  4 RMS(Cart)=  0.00000803 RMS(Int)=  0.00004370
 Iteration  5 RMS(Cart)=  0.00000506 RMS(Int)=  0.00004642
 Iteration  6 RMS(Cart)=  0.00000319 RMS(Int)=  0.00004820
 Iteration  7 RMS(Cart)=  0.00000201 RMS(Int)=  0.00004935
 Iteration  8 RMS(Cart)=  0.00000126 RMS(Int)=  0.00005008
 Iteration  9 RMS(Cart)=  0.00000080 RMS(Int)=  0.00005054
 ClnCor:  largest displacement from symmetrization is 2.21D-11 for atom     9.
 Variable       Old X    -DE/DX   Delta X   Delta X   Delta X     New X
                                 (Linear)    (Quad)   (Total)
    R1        2.88251  -0.00011   0.00325  -0.00216   0.00109   2.88360
    R2        2.67853  -0.01197   0.00326  -0.03144  -0.02818   2.65035
    R3        2.05622  -0.00112   0.00047  -0.00377  -0.00330   2.05292
    R4        2.05069   0.00027  -0.00055   0.00123   0.00068   2.05137
    R5        2.67853  -0.01197   0.00326  -0.03144  -0.02818   2.65035
    R6        2.05622  -0.00112   0.00047  -0.00377  -0.00330   2.05292
    R7        2.05069   0.00027  -0.00055   0.00123   0.00068   2.05137
    R8        1.78860   0.00017  -0.00008   0.00036   0.00028   1.78889
    R9        1.78860   0.00017  -0.00008   0.00036   0.00028   1.78889
    A1        1.89161  -0.00138   0.00264  -0.01529  -0.01448   1.87713
    A2        1.80961   0.00740  -0.00578   0.08090   0.07431   1.88392
    A3        1.98051  -0.00138   0.00355  -0.02153  -0.02027   1.96024
    A4        1.90933   0.00202   0.02961  -0.01329   0.01607   1.92540
    A5        1.99119  -0.00504  -0.02385  -0.03889  -0.06428   1.92691
    A6        1.87188  -0.00022  -0.00252   0.02026   0.01811   1.88998
    A7        1.89161  -0.00138   0.00264  -0.01529  -0.01448   1.87713
    A8        1.80961   0.00740  -0.00578   0.08090   0.07431   1.88392
    A9        1.98051  -0.00138   0.00355  -0.02153  -0.02027   1.96024
   A10        1.90933   0.00202   0.02961  -0.01329   0.01607   1.92540
   A11        1.99119  -0.00504  -0.02385  -0.03889  -0.06428   1.92691
   A12        1.87188  -0.00022  -0.00252   0.02026   0.01811   1.88998
   A13        1.90947  -0.00100  -0.00110  -0.00614  -0.00724   1.90223
   A14        1.90947  -0.00100  -0.00110  -0.00614  -0.00724   1.90223
    D1       -2.39739  -0.01049   0.00000   0.00000   0.00001  -2.39738
    D2       -0.36979  -0.00516   0.03189   0.01784   0.04979  -0.32000
    D3        1.65492  -0.00164   0.02716   0.08031   0.10730   1.76221
    D4       -0.36979  -0.00516   0.03189   0.01784   0.04979  -0.32000
    D5        1.65781   0.00016   0.06378   0.03568   0.09958   1.75739
    D6       -2.60067   0.00369   0.05905   0.09814   0.15708  -2.44359
    D7        1.65492  -0.00164   0.02716   0.08031   0.10730   1.76221
    D8       -2.60067   0.00369   0.05905   0.09814   0.15708  -2.44359
    D9       -0.57596   0.00722   0.05431   0.16061   0.21458  -0.36137
   D10        3.13641   0.00534   0.00926   0.05195   0.06032  -3.08646
   D11        1.17445  -0.00365   0.00102  -0.02841  -0.02834   1.14611
   D12       -0.92200  -0.00146  -0.00317  -0.01888  -0.02022  -0.94222
   D13        3.13641   0.00534   0.00926   0.05195   0.06032  -3.08646
   D14        1.17445  -0.00365   0.00102  -0.02841  -0.02834   1.14611
   D15       -0.92200  -0.00146  -0.00317  -0.01888  -0.02022  -0.94222
         Item               Value     Threshold  Converged?
 Maximum Force            0.011972     0.000450     NO 
 RMS     Force            0.003700     0.000300     NO 
 Maximum Displacement     0.150245     0.001800     NO 
 RMS     Displacement     0.055584     0.001200     NO 
 Predicted change in Energy=-2.891543D-03
 GradGradGradGradGradGradGradGradGradGradGradGradGradGradGradGradGradGrad

                          Input orientation:                          
 ---------------------------------------------------------------------
 Center     Atomic      Atomic             Coordinates (Angstroms)
 Number     Number       Type             X           Y           Z
 ---------------------------------------------------------------------
      1          6           0       -0.424266    0.634128    0.160240
      2          6           0        0.424266   -0.634128    0.160240
      3          1           0       -0.116011    2.486301   -0.288774
      4          1           0        0.116011   -2.486301   -0.288774
      5          8           0        0.375884    1.678352   -0.325939
      6          8           0       -0.375884   -1.678352   -0.325939
      7          1           0       -1.271700    0.469775   -0.499316
      8          1           0       -0.803448    0.876328    1.148144
      9          1           0        1.271700   -0.469775   -0.499316
     10          1           0        0.803448   -0.876328    1.148144
 ---------------------------------------------------------------------
                    Distance matrix (angstroms):
                    1          2          3          4          5
     1  C    0.000000
     2  C    1.525936   0.000000
     3  H    1.930591   3.198529   0.000000
     4  H    3.198529   1.930591   4.978012   0.000000
     5  O    1.402503   2.363530   0.946638   4.172919   0.000000
     6  O    2.363530   1.402503   4.172919   0.946638   3.439857
     7  H    1.086356   2.128361   2.333735   3.272378   2.050671
     8  H    1.085538   2.182822   2.264799   3.770598   2.051094
     9  H    2.128361   1.086356   3.272378   2.333735   2.333880
    10  H    2.182822   1.085538   3.770598   2.264799   2.980288
                    6          7          8          9         10
     6  O    0.000000
     7  H    2.333880   0.000000
     8  H    2.980288   1.760304   0.000000
     9  H    2.050671   2.711391   2.971928   0.000000
    10  H    2.051094   2.971928   2.377797   1.760304   0.000000
 Stoichiometry    C2H6O2
 Framework group  C2[X(C2H6O2)]
 Deg. of freedom    13
 Full point group                 C2      NOp   2
 Largest Abelian subgroup         C2      NOp   2
 Largest concise Abelian subgroup C2      NOp   2
                         Standard orientation:                         
 ---------------------------------------------------------------------
 Center     Atomic      Atomic             Coordinates (Angstroms)
 Number     Number       Type             X           Y           Z
 ---------------------------------------------------------------------
      1          6           0       -0.410909    0.642864    0.235888
      2          6           0        0.410909   -0.642864    0.235888
      3          1           0       -0.063978    2.488184   -0.213126
      4          1           0        0.063978   -2.488184   -0.213126
      5          8           0        0.410909    1.670122   -0.250291
      6          8           0       -0.410909   -1.670122   -0.250291
      7          1           0       -1.261595    0.496274   -0.423668
      8          1           0       -0.784942    0.892942    1.223792
      9          1           0        1.261595   -0.496274   -0.423668
     10          1           0        0.784942   -0.892942    1.223792
 ---------------------------------------------------------------------
 Rotational constants (GHZ):     26.4161789      4.1393696      3.9593275
 Standard basis: 6-31G(d) (6D, 7F)
 There are    36 symmetry adapted basis functions of A   symmetry.
 There are    36 symmetry adapted basis functions of B   symmetry.
 Integral buffers will be    131072 words long.
 Raffenetti 1 integral format.
 Two-electron integral symmetry is turned on.
    72 basis functions,   136 primitive gaussians,    72 cartesian basis functions
    17 alpha electrons       17 beta electrons
       nuclear repulsion energy       131.6125986047 Hartrees.
 NAtoms=   10 NActive=   10 NUniq=    5 SFac= 3.00D+00 NAtFMM=   80 NAOKFM=F Big=F
 One-electron integrals computed using PRISM.
 NBasis=    72 RedAO= T  NBF=    36    36
 NBsUse=    72 1.00D-06 NBFU=    36    36
 Initial guess read from the read-write file.
 B after Tr=     0.000000    0.000000    0.000000
         Rot=    1.000000    0.000000    0.000000    0.000000 Ang=   0.00 deg.
 Initial guess orbital symmetries:
       Occupied  (A) (B) (A) (B) (A) (B) (A) (B) (B) (A) (A) (B)
                 (A) (B) (A) (A) (B)
       Virtual   (B) (A) (A) (B) (A) (B) (B) (A) (B) (A) (A) (B)
                 (A) (B) (B) (B) (A) (A) (A) (B) (B) (A) (A) (B)
                 (A) (B) (B) (A) (B) (A) (A) (B) (A) (B) (B) (A)
                 (B) (A) (A) (B) (B) (A) (B) (A) (B) (A) (B) (A)
                 (B) (A) (B) (A) (B) (A) (B)
 Harris functional with IExCor=  205 diagonalized for initial guess.
 ExpMin= 1.61D-01 ExpMax= 5.48D+03 ExpMxC= 8.25D+02 IAcc=1 IRadAn=         1 AccDes= 0.00D+00
 HarFok:  IExCor=  205 AccDes= 0.00D+00 IRadAn=         1 IDoV= 1
 ScaDFX=  1.000000  1.000000  1.000000  1.000000
 FoFCou: FMM=F IPFlag=           0 FMFlag=      100000 FMFlg1=           0
         NFxFlg=           0 DoJE=T BraDBF=F KetDBF=T FulRan=T
         Omega=  0.000000  0.000000  1.000000  0.000000  0.000000 ICntrl=     500 IOpCl=  0
         NMat0=    1 NMatS0=    1 NMatT0=    0 NMatD0=    1 NMtDS0=    0 NMtDT0=    0
         I1Cent=           4 NGrid=           0.
 Petite list used in FoFCou.
 Requested convergence on RMS density matrix=1.00D-08 within 128 cycles.
 Requested convergence on MAX density matrix=1.00D-06.
 Requested convergence on             energy=1.00D-06.
 No special actions if energy rises.
 Keep R1 ints in memory in canonical form, NReq=4309302.
 SCF Done:  E(RHF) =  -228.917144653     A.U. after   11 cycles
             Convg  =    0.4250D-08             -V/T =  2.0014
 Calling FoFJK, ICntrl=      2127 FMM=F ISym2X=1 I1Cent= 0 IOpClX= 0 NMat=1 NMatS=1 NMatT=0.
 ***** Axes restored to original set *****
 -------------------------------------------------------------------
 Center     Atomic                   Forces (Hartrees/Bohr)
 Number     Number              X              Y              Z
 -------------------------------------------------------------------
      1        6           0.000585174   -0.000772455   -0.004664643
      2        6          -0.000585174    0.000772455   -0.004664643
      3        1           0.001022883    0.000656105   -0.000604940
      4        1          -0.001022883   -0.000656105   -0.000604940
      5        8           0.001382946    0.004153208    0.002527511
      6        8          -0.001382946   -0.004153208    0.002527511
      7        1           0.000352258   -0.001281870    0.001228947
      8        1          -0.000149036   -0.002274358    0.001513125
      9        1          -0.000352258    0.001281870    0.001228947
     10        1           0.000149036    0.002274358    0.001513125
 -------------------------------------------------------------------
 Cartesian Forces:  Max     0.004664643 RMS     0.002014163

 GradGradGradGradGradGradGradGradGradGradGradGradGradGradGradGradGradGrad
 Berny optimization.
 Using GEDIIS/GDIIS optimizer.
 Internal  Forces:  Max     0.004286845 RMS     0.001862835
 Search for a local minimum.
 Step number   4 out of a maximum of   48
 All quantities printed in internal units (Hartrees-Bohrs-Radians)
 Mixed Optimization -- RFO/linear search
 Update second derivatives using D2CorX and points    3    4
 DE= -2.41D-03 DEPred=-2.89D-03 R= 8.33D-01
 SS=  1.41D+00  RLast= 4.08D-01 DXNew= 8.4853D-01 1.2239D+00
 Trust test= 8.33D-01 RLast= 4.08D-01 DXMaxT set to 8.49D-01
 Use linear search instead of GDIIS.
     Eigenvalues ---    0.01604   0.01604   0.02163   0.05426   0.06074
     Eigenvalues ---    0.06676   0.11165   0.12088   0.13330   0.13638
     Eigenvalues ---    0.16000   0.16429   0.21980   0.22676   0.30833
     Eigenvalues ---    0.35153   0.35161   0.35190   0.35214   0.44537
     Eigenvalues ---    0.49711   0.58423   0.584231000.000001000.00000
     Eigenvalues --- 1000.000001000.000001000.000001000.000001000.00000
     Eigenvalues --- 1000.000001000.000001000.000001000.000001000.00000
     Eigenvalues --- 1000.000001000.000001000.00000
 RFO step:  Lambda=-3.97831440D-04 EMin= 1.60372720D-02
 Quartic linear search produced a step of -0.10371.
 Iteration  1 RMS(Cart)=  0.01351889 RMS(Int)=  0.00017266
 Iteration  2 RMS(Cart)=  0.00014448 RMS(Int)=  0.00010221
 Iteration  3 RMS(Cart)=  0.00000001 RMS(Int)=  0.00010221
 Iteration  1 RMS(Cart)=  0.00000961 RMS(Int)=  0.00000931
 Iteration  2 RMS(Cart)=  0.00000606 RMS(Int)=  0.00001034
 Iteration  3 RMS(Cart)=  0.00000382 RMS(Int)=  0.00001184
 Iteration  4 RMS(Cart)=  0.00000240 RMS(Int)=  0.00001302
 Iteration  5 RMS(Cart)=  0.00000152 RMS(Int)=  0.00001383
 Iteration  6 RMS(Cart)=  0.00000096 RMS(Int)=  0.00001437
 ClnCor:  largest displacement from symmetrization is 1.30D-11 for atom     9.
 Variable       Old X    -DE/DX   Delta X   Delta X   Delta X     New X
                                 (Linear)    (Quad)   (Total)
    R1        2.88360  -0.00138  -0.00011  -0.00413  -0.00424   2.87936
    R2        2.65035   0.00429   0.00292   0.00285   0.00578   2.65612
    R3        2.05292  -0.00083   0.00034  -0.00278  -0.00244   2.05047
    R4        2.05137   0.00092  -0.00007   0.00254   0.00247   2.05384
    R5        2.65035   0.00429   0.00292   0.00285   0.00578   2.65612
    R6        2.05292  -0.00083   0.00034  -0.00278  -0.00244   2.05047
    R7        2.05137   0.00092  -0.00007   0.00254   0.00247   2.05384
    R8        1.78889   0.00000  -0.00003   0.00007   0.00004   1.78893
    R9        1.78889   0.00000  -0.00003   0.00007   0.00004   1.78893
    A1        1.87713   0.00241   0.00150   0.00878   0.01045   1.88758
    A2        1.88392  -0.00098  -0.00771   0.00594  -0.00184   1.88208
    A3        1.96024  -0.00327   0.00210  -0.02576  -0.02349   1.93675
    A4        1.92540   0.00159  -0.00167   0.00930   0.00761   1.93302
    A5        1.92691  -0.00039   0.00667   0.00143   0.00835   1.93526
    A6        1.88998   0.00068  -0.00188   0.00080  -0.00124   1.88874
    A7        1.87713   0.00241   0.00150   0.00878   0.01045   1.88758
    A8        1.88392  -0.00098  -0.00771   0.00594  -0.00184   1.88208
    A9        1.96024  -0.00327   0.00210  -0.02576  -0.02349   1.93675
   A10        1.92540   0.00159  -0.00167   0.00930   0.00761   1.93302
   A11        1.92691  -0.00039   0.00667   0.00143   0.00835   1.93526
   A12        1.88998   0.00068  -0.00188   0.00080  -0.00124   1.88874
   A13        1.90223   0.00242   0.00075   0.01223   0.01298   1.91521
   A14        1.90223   0.00242   0.00075   0.01223   0.01298   1.91521
    D1       -2.39738  -0.00330   0.00000   0.00000  -0.00001  -2.39739
    D2       -0.32000  -0.00064  -0.00516   0.01900   0.01378  -0.30622
    D3        1.76221  -0.00241  -0.01113   0.00836  -0.00269   1.75953
    D4       -0.32000  -0.00064  -0.00516   0.01900   0.01378  -0.30622
    D5        1.75739   0.00202  -0.01033   0.03799   0.02757   1.78496
    D6       -2.44359   0.00025  -0.01629   0.02736   0.01110  -2.43248
    D7        1.76221  -0.00241  -0.01113   0.00836  -0.00269   1.75953
    D8       -2.44359   0.00025  -0.01629   0.02736   0.01110  -2.43248
    D9       -0.36137  -0.00152  -0.02225   0.01672  -0.00537  -0.36674
   D10       -3.08646   0.00121  -0.00626   0.01150   0.00535  -3.08110
   D11        1.14611   0.00011   0.00294  -0.00584  -0.00289   1.14323
   D12       -0.94222  -0.00149   0.00210  -0.01368  -0.01170  -0.95392
   D13       -3.08646   0.00121  -0.00626   0.01150   0.00535  -3.08110
   D14        1.14611   0.00011   0.00294  -0.00584  -0.00289   1.14323
   D15       -0.94222  -0.00149   0.00210  -0.01368  -0.01170  -0.95392
         Item               Value     Threshold  Converged?
 Maximum Force            0.004287     0.000450     NO 
 RMS     Force            0.001664     0.000300     NO 
 Maximum Displacement     0.037005     0.001800     NO 
 RMS     Displacement     0.013553     0.001200     NO 
 Predicted change in Energy=-2.310442D-04
 GradGradGradGradGradGradGradGradGradGradGradGradGradGradGradGradGradGrad

                          Input orientation:                          
 ---------------------------------------------------------------------
 Center     Atomic      Atomic             Coordinates (Angstroms)
 Number     Number       Type             X           Y           Z
 ---------------------------------------------------------------------
      1          6           0       -0.421068    0.634910    0.155067
      2          6           0        0.421068   -0.634910    0.155067
      3          1           0       -0.111286    2.499371   -0.290044
      4          1           0        0.111286   -2.499371   -0.290044
      5          8           0        0.373850    1.687478   -0.330529
      6          8           0       -0.373850   -1.687478   -0.330529
      7          1           0       -1.275006    0.467365   -0.493071
      8          1           0       -0.790244    0.856746    1.152931
      9          1           0        1.275006   -0.467365   -0.493071
     10          1           0        0.790244   -0.856746    1.152931
 ---------------------------------------------------------------------
                    Distance matrix (angstroms):
                    1          2          3          4          5
     1  C    0.000000
     2  C    1.523691   0.000000
     3  H    1.941727   3.210177   0.000000
     4  H    3.210177   1.941727   5.003694   0.000000
     5  O    1.405559   2.373081   0.946660   4.195269   0.000000
     6  O    2.373081   1.405559   4.195269   0.946660   3.456787
     7  H    1.085064   2.124090   2.350428   3.280937   2.057625
     8  H    1.086846   2.165189   2.289405   3.762771   2.060554
     9  H    2.124090   1.085064   3.280937   2.350428   2.341335
    10  H    2.165189   1.086846   3.762771   2.289405   2.974409
                    6          7          8          9         10
     6  O    0.000000
     7  H    2.341335   0.000000
     8  H    2.974409   1.759527   0.000000
     9  H    2.057625   2.715931   2.954294   0.000000
    10  H    2.060554   2.954294   2.331094   1.759527   0.000000
 Stoichiometry    C2H6O2
 Framework group  C2[X(C2H6O2)]
 Deg. of freedom    13
 Full point group                 C2      NOp   2
 Largest Abelian subgroup         C2      NOp   2
 Largest concise Abelian subgroup C2      NOp   2
                         Standard orientation:                         
 ---------------------------------------------------------------------
 Center     Atomic      Atomic             Coordinates (Angstroms)
 Number     Number       Type             X           Y           Z
 ---------------------------------------------------------------------
      1          6           0       -0.408075    0.643338    0.234127
      2          6           0        0.408075   -0.643338    0.234127
      3          1           0       -0.060457    2.501116   -0.210984
      4          1           0        0.060457   -2.501116   -0.210984
      5          8           0        0.408075    1.679529   -0.251469
      6          8           0       -0.408075   -1.679529   -0.251469
      7          1           0       -1.265242    0.493186   -0.414011
      8          1           0       -0.772665    0.872632    1.231990
      9          1           0        1.265242   -0.493186   -0.414011
     10          1           0        0.772665   -0.872632    1.231990
 ---------------------------------------------------------------------
 Rotational constants (GHZ):     26.6009677      4.1025291      3.9308877
 Standard basis: 6-31G(d) (6D, 7F)
 There are    36 symmetry adapted basis functions of A   symmetry.
 There are    36 symmetry adapted basis functions of B   symmetry.
 Integral buffers will be    131072 words long.
 Raffenetti 1 integral format.
 Two-electron integral symmetry is turned on.
    72 basis functions,   136 primitive gaussians,    72 cartesian basis functions
    17 alpha electrons       17 beta electrons
       nuclear repulsion energy       131.3686522610 Hartrees.
 NAtoms=   10 NActive=   10 NUniq=    5 SFac= 3.00D+00 NAtFMM=   80 NAOKFM=F Big=F
 One-electron integrals computed using PRISM.
 NBasis=    72 RedAO= T  NBF=    36    36
 NBsUse=    72 1.00D-06 NBFU=    36    36
 Initial guess read from the read-write file.
 B after Tr=     0.000000    0.000000    0.000000
         Rot=    1.000000    0.000000    0.000000    0.000000 Ang=   0.00 deg.
 Initial guess orbital symmetries:
       Occupied  (A) (B) (A) (B) (A) (B) (A) (B) (B) (A) (A) (B)
                 (A) (B) (A) (A) (B)
       Virtual   (B) (A) (A) (B) (A) (B) (B) (A) (B) (A) (A) (B)
                 (A) (B) (B) (B) (A) (A) (A) (B) (B) (A) (B) (A)
                 (A) (B) (B) (B) (A) (A) (A) (B) (A) (B) (B) (A)
                 (B) (A) (A) (B) (B) (A) (B) (A) (B) (A) (B) (A)
                 (B) (A) (B) (A) (B) (A) (B)
 Harris functional with IExCor=  205 diagonalized for initial guess.
 ExpMin= 1.61D-01 ExpMax= 5.48D+03 ExpMxC= 8.25D+02 IAcc=1 IRadAn=         1 AccDes= 0.00D+00
 HarFok:  IExCor=  205 AccDes= 0.00D+00 IRadAn=         1 IDoV= 1
 ScaDFX=  1.000000  1.000000  1.000000  1.000000
 FoFCou: FMM=F IPFlag=           0 FMFlag=      100000 FMFlg1=           0
         NFxFlg=           0 DoJE=T BraDBF=F KetDBF=T FulRan=T
         Omega=  0.000000  0.000000  1.000000  0.000000  0.000000 ICntrl=     500 IOpCl=  0
         NMat0=    1 NMatS0=    1 NMatT0=    0 NMatD0=    1 NMtDS0=    0 NMtDT0=    0
         I1Cent=           4 NGrid=           0.
 Petite list used in FoFCou.
 Requested convergence on RMS density matrix=1.00D-08 within 128 cycles.
 Requested convergence on MAX density matrix=1.00D-06.
 Requested convergence on             energy=1.00D-06.
 No special actions if energy rises.
 Keep R1 ints in memory in canonical form, NReq=4309302.
 SCF Done:  E(RHF) =  -228.917343077     A.U. after   10 cycles
             Convg  =    0.3030D-08             -V/T =  2.0015
 Calling FoFJK, ICntrl=      2127 FMM=F ISym2X=1 I1Cent= 0 IOpClX= 0 NMat=1 NMatS=1 NMatT=0.
 ***** Axes restored to original set *****
 -------------------------------------------------------------------
 Center     Atomic                   Forces (Hartrees/Bohr)
 Number     Number              X              Y              Z
 -------------------------------------------------------------------
      1        6          -0.001918744    0.000012159   -0.003123419
      2        6           0.001918744   -0.000012159   -0.003123419
      3        1          -0.000238524   -0.000435125    0.000081678
      4        1           0.000238524    0.000435125    0.000081678
      5        8           0.001322941    0.000206523    0.003096955
      6        8          -0.001322941   -0.000206523    0.003096955
      7        1          -0.000172878   -0.000049145    0.000045186
      8        1          -0.000296499    0.000126478   -0.000100399
      9        1           0.000172878    0.000049145    0.000045186
     10        1           0.000296499   -0.000126478   -0.000100399
 -------------------------------------------------------------------
 Cartesian Forces:  Max     0.003123419 RMS     0.001296731

 GradGradGradGradGradGradGradGradGradGradGradGradGradGradGradGradGradGrad
 Berny optimization.
 Using GEDIIS/GDIIS optimizer.
 Internal  Forces:  Max     0.002992513 RMS     0.000866698
 Search for a local minimum.
 Step number   5 out of a maximum of   48
 All quantities printed in internal units (Hartrees-Bohrs-Radians)
 Mixed Optimization -- En-DIIS/RFO-DIIS
 Update second derivatives using D2CorX and points    3    4    5
 DE= -1.98D-04 DEPred=-2.31D-04 R= 8.59D-01
 SS=  1.41D+00  RLast= 6.17D-02 DXNew= 1.4270D+00 1.8520D-01
 Trust test= 8.59D-01 RLast= 6.17D-02 DXMaxT set to 8.49D-01
 Use linear search instead of GDIIS.
     Eigenvalues ---    0.01594   0.01604   0.02200   0.05425   0.06140
     Eigenvalues ---    0.06532   0.11134   0.11844   0.13664   0.13670
     Eigenvalues ---    0.16000   0.17173   0.22000   0.24242   0.31216
     Eigenvalues ---    0.35077   0.35161   0.35214   0.35230   0.44537
     Eigenvalues ---    0.51621   0.58423   0.584891000.000001000.00000
     Eigenvalues --- 1000.000001000.000001000.000001000.000001000.00000
     Eigenvalues --- 1000.000001000.000001000.000001000.000001000.00000
     Eigenvalues --- 1000.000001000.000001000.00000
 RFO step:  Lambda=-8.61387376D-06 EMin= 1.59416834D-02
 Quartic linear search produced a step of -0.12545.
 Iteration  1 RMS(Cart)=  0.00268796 RMS(Int)=  0.00000915
 Iteration  2 RMS(Cart)=  0.00000496 RMS(Int)=  0.00000745
 Iteration  3 RMS(Cart)=  0.00000000 RMS(Int)=  0.00000745
 Iteration  1 RMS(Cart)=  0.00000007 RMS(Int)=  0.00000007
 ClnCor:  largest displacement from symmetrization is 1.18D-13 for atom     4.
 Variable       Old X    -DE/DX   Delta X   Delta X   Delta X     New X
                                 (Linear)    (Quad)   (Total)
    R1        2.87936   0.00060   0.00053   0.00109   0.00162   2.88098
    R2        2.65612  -0.00066  -0.00072  -0.00013  -0.00085   2.65527
    R3        2.05047   0.00012   0.00031  -0.00003   0.00028   2.05075
    R4        2.05384   0.00003  -0.00031   0.00042   0.00011   2.05396
    R5        2.65612  -0.00066  -0.00072  -0.00013  -0.00085   2.65527
    R6        2.05047   0.00012   0.00031  -0.00003   0.00028   2.05075
    R7        2.05384   0.00003  -0.00031   0.00042   0.00011   2.05396
    R8        1.78893  -0.00025  -0.00001  -0.00036  -0.00037   1.78856
    R9        1.78893  -0.00025  -0.00001  -0.00036  -0.00037   1.78856
    A1        1.88758  -0.00071  -0.00131  -0.00088  -0.00220   1.88538
    A2        1.88208   0.00032   0.00023  -0.00141  -0.00117   1.88092
    A3        1.93675   0.00024   0.00295  -0.00026   0.00269   1.93944
    A4        1.93302   0.00146  -0.00096   0.00190   0.00095   1.93396
    A5        1.93526  -0.00101  -0.00105   0.00236   0.00130   1.93657
    A6        1.88874  -0.00023   0.00016  -0.00177  -0.00159   1.88715
    A7        1.88758  -0.00071  -0.00131  -0.00088  -0.00220   1.88538
    A8        1.88208   0.00032   0.00023  -0.00141  -0.00117   1.88092
    A9        1.93675   0.00024   0.00295  -0.00026   0.00269   1.93944
   A10        1.93302   0.00146  -0.00096   0.00190   0.00095   1.93396
   A11        1.93526  -0.00101  -0.00105   0.00236   0.00130   1.93657
   A12        1.88874  -0.00023   0.00016  -0.00177  -0.00159   1.88715
   A13        1.91521  -0.00077  -0.00163  -0.00220  -0.00383   1.91139
   A14        1.91521  -0.00077  -0.00163  -0.00220  -0.00383   1.91139
    D1       -2.39739  -0.00299   0.00000   0.00000   0.00000  -2.39739
    D2       -0.30622  -0.00146  -0.00173   0.00097  -0.00075  -0.30696
    D3        1.75953  -0.00142   0.00034  -0.00218  -0.00185   1.75768
    D4       -0.30622  -0.00146  -0.00173   0.00097  -0.00075  -0.30696
    D5        1.78496   0.00006  -0.00346   0.00195  -0.00150   1.78346
    D6       -2.43248   0.00011  -0.00139  -0.00121  -0.00260  -2.43509
    D7        1.75953  -0.00142   0.00034  -0.00218  -0.00185   1.75768
    D8       -2.43248   0.00011  -0.00139  -0.00121  -0.00260  -2.43509
    D9       -0.36674   0.00016   0.00067  -0.00436  -0.00370  -0.37045
   D10       -3.08110   0.00049  -0.00067  -0.00343  -0.00410  -3.08521
   D11        1.14323  -0.00031   0.00036  -0.00227  -0.00190   1.14132
   D12       -0.95392  -0.00031   0.00147  -0.00286  -0.00139  -0.95531
   D13       -3.08110   0.00049  -0.00067  -0.00343  -0.00410  -3.08521
   D14        1.14323  -0.00031   0.00036  -0.00227  -0.00190   1.14132
   D15       -0.95392  -0.00031   0.00147  -0.00286  -0.00139  -0.95531
         Item               Value     Threshold  Converged?
 Maximum Force            0.000771     0.000450     NO 
 RMS     Force            0.000342     0.000300     NO 
 Maximum Displacement     0.006518     0.001800     NO 
 RMS     Displacement     0.002690     0.001200     NO 
 Predicted change in Energy=-8.506247D-06
 GradGradGradGradGradGradGradGradGradGradGradGradGradGradGradGradGradGrad

                          Input orientation:                          
 ---------------------------------------------------------------------
 Center     Atomic      Atomic             Coordinates (Angstroms)
 Number     Number       Type             X           Y           Z
 ---------------------------------------------------------------------
      1          6           0       -0.421326    0.635255    0.156148
      2          6           0        0.421326   -0.635255    0.156148
      3          1           0       -0.111866    2.495922   -0.291915
      4          1           0        0.111866   -2.495922   -0.291915
      5          8           0        0.375667    1.685559   -0.329644
      6          8           0       -0.375667   -1.685559   -0.329644
      7          1           0       -1.274554    0.466757   -0.492924
      8          1           0       -0.793419    0.858455    1.152689
      9          1           0        1.274554   -0.466757   -0.492924
     10          1           0        0.793419   -0.858455    1.152689
 ---------------------------------------------------------------------
                    Distance matrix (angstroms):
                    1          2          3          4          5
     1  C    0.000000
     2  C    1.524551   0.000000
     3  H    1.938713   3.207697   0.000000
     4  H    3.207697   1.938713   4.996855   0.000000
     5  O    1.405109   2.371551   0.946467   4.189964   0.000000
     6  O    2.371551   1.405109   4.189964   0.946467   3.453830
     7  H    1.085212   2.124084   2.347287   3.277199   2.058001
     8  H    1.086907   2.167918   2.287508   3.762747   2.061110
     9  H    2.124084   1.085212   3.277199   2.347287   2.338189
    10  H    2.167918   1.086907   3.762747   2.287508   2.973859
                    6          7          8          9         10
     6  O    0.000000
     7  H    2.338189   0.000000
     8  H    2.973859   1.758681   0.000000
     9  H    2.058001   2.714665   2.956475   0.000000
    10  H    2.061110   2.956475   2.337912   1.758681   0.000000
 Stoichiometry    C2H6O2
 Framework group  C2[X(C2H6O2)]
 Deg. of freedom    13
[...]
             Convg  =    0.5608D-08             -V/T =  2.0015
 Calling FoFJK, ICntrl=      2127 FMM=F ISym2X=1 I1Cent= 0 IOpClX= 0 NMat=1 NMatS=1 NMatT=0.
 ***** Axes restored to original set *****
 -------------------------------------------------------------------
 Center     Atomic                   Forces (Hartrees/Bohr)
 Number     Number              X              Y              Z
 -------------------------------------------------------------------
      1        6          -0.001641866   -0.001131715   -0.003041018
      2        6           0.001641866    0.001131715   -0.003041018
      3        1          -0.000006186   -0.000005549   -0.000000995
      4        1           0.000006186    0.000005549   -0.000000995
      5        8           0.001055554    0.000713250    0.003041247
      6        8          -0.001055554   -0.000713250    0.003041247
      7        1           0.000014810    0.000006168    0.000004239
      8        1           0.000014983   -0.000002878   -0.000003473
      9        1          -0.000014810   -0.000006168    0.000004239
     10        1          -0.000014983    0.000002878   -0.000003473
 -------------------------------------------------------------------
 Cartesian Forces:  Max     0.003041247 RMS     0.001267464

 GradGradGradGradGradGradGradGradGradGradGradGradGradGradGradGradGradGrad
 Berny optimization.
 Using GEDIIS/GDIIS optimizer.
 Internal  Forces:  Max     0.003073656 RMS     0.000820140
 Search for a local minimum.
 Step number   9 out of a maximum of   48
 All quantities printed in internal units (Hartrees-Bohrs-Radians)
 Mixed Optimization -- En-DIIS/RFO-DIIS
 Swaping is turned off.
 Update second derivatives using D2CorX and points    3    4    5    6    7
                                                      8    9
 DE= -3.40D-07 DEPred=-2.99D-07 R= 1.14D+00
 Trust test= 1.14D+00 RLast= 1.24D-02 DXMaxT set to 8.49D-01
     Eigenvalues ---    0.00312   0.01604   0.02217   0.05423   0.06143
     Eigenvalues ---    0.06815   0.11127   0.13570   0.13665   0.14307
     Eigenvalues ---    0.16000   0.17976   0.21993   0.29791   0.35071
     Eigenvalues ---    0.35161   0.35214   0.35618   0.39349   0.44537
     Eigenvalues ---    0.55398   0.58423   0.595661000.000001000.00000
     Eigenvalues --- 1000.000001000.000001000.000001000.000001000.00000
     Eigenvalues --- 1000.000001000.000001000.000001000.000001000.00000
     Eigenvalues --- 1000.000001000.000001000.00000
 En-DIIS/RFO-DIIS IScMMF=        0 using points:     9    8    7    6    5
 RFO step:  Lambda=-8.29261932D-07.
 DIIS coeffs:      1.48184     -0.96211      0.42631      0.05260      0.00137
 Iteration  1 RMS(Cart)=  0.00025717 RMS(Int)=  0.00000041
 Iteration  2 RMS(Cart)=  0.00000008 RMS(Int)=  0.00000040
 Iteration  1 RMS(Cart)=  0.00000067 RMS(Int)=  0.00000065
 ClnCor:  largest displacement from symmetrization is 9.71D-12 for atom     4.
 Variable       Old X    -DE/DX   Delta X   Delta X   Delta X     New X
                                  (DIIS)     (GDIIS)  (Total)
    R1        2.88155  -0.00004  -0.00006  -0.00006  -0.00012   2.88144
    R2        2.65466   0.00007   0.00015   0.00004   0.00019   2.65485
    R3        2.05092  -0.00002  -0.00005   0.00000  -0.00005   2.05087
    R4        2.05405  -0.00001  -0.00002  -0.00001  -0.00003   2.05403
    R5        2.65466   0.00007   0.00015   0.00004   0.00019   2.65485
    R6        2.05092  -0.00002  -0.00005   0.00000  -0.00005   2.05087
    R7        2.05405  -0.00001  -0.00002  -0.00001  -0.00003   2.05403
    R8        1.78866   0.00000  -0.00002   0.00002   0.00000   1.78866
    R9        1.78866   0.00000  -0.00002   0.00002   0.00000   1.78866
    A1        1.88599  -0.00005  -0.00002  -0.00004  -0.00007   1.88592
    A2        1.88073   0.00028   0.00009  -0.00001   0.00007   1.88081
    A3        1.93966  -0.00025  -0.00011   0.00009  -0.00002   1.93964
    A4        1.93391   0.00123  -0.00002  -0.00001  -0.00004   1.93387
    A5        1.93617  -0.00116   0.00003  -0.00010  -0.00007   1.93610
    A6        1.88697   0.00000   0.00003   0.00009   0.00012   1.88708
    A7        1.88599  -0.00005  -0.00002  -0.00004  -0.00007   1.88592
    A8        1.88073   0.00028   0.00009  -0.00001   0.00007   1.88081
    A9        1.93966  -0.00025  -0.00011   0.00009  -0.00002   1.93964
   A10        1.93391   0.00123  -0.00002  -0.00001  -0.00004   1.93387
   A11        1.93617  -0.00116   0.00003  -0.00010  -0.00007   1.93610
   A12        1.88697   0.00000   0.00003   0.00009   0.00012   1.88708
   A13        1.91195  -0.00001  -0.00007  -0.00001  -0.00008   1.91187
   A14        1.91195  -0.00001  -0.00007  -0.00001  -0.00008   1.91187
    D1       -2.39739  -0.00307   0.00000   0.00000   0.00000  -2.39739
    D2       -0.30680  -0.00148   0.00001  -0.00005  -0.00004  -0.30683
    D3        1.75763  -0.00144   0.00004   0.00010   0.00014   1.75777
    D4       -0.30680  -0.00148   0.00001  -0.00005  -0.00004  -0.30683
    D5        1.78380   0.00012   0.00002  -0.00010  -0.00008   1.78372
    D6       -2.43496   0.00015   0.00005   0.00005   0.00010  -2.43486
    D7        1.75763  -0.00144   0.00004   0.00010   0.00014   1.75777
    D8       -2.43496   0.00015   0.00005   0.00005   0.00010  -2.43486
    D9       -0.37053   0.00018   0.00008   0.00019   0.00027  -0.37026
   D10       -3.09620   0.00069  -0.00057  -0.00011  -0.00069  -3.09689
   D11        1.13021  -0.00032  -0.00065  -0.00006  -0.00072   1.12950
   D12       -0.96589  -0.00038  -0.00070  -0.00010  -0.00080  -0.96669
   D13       -3.09620   0.00069  -0.00057  -0.00011  -0.00069  -3.09689
   D14        1.13021  -0.00032  -0.00065  -0.00006  -0.00072   1.12950
   D15       -0.96589  -0.00038  -0.00070  -0.00010  -0.00080  -0.96669
         Item               Value     Threshold  Converged?
 Maximum Force            0.000073     0.000450     YES
 RMS     Force            0.000020     0.000300     YES
 Maximum Displacement     0.000909     0.001800     YES
 RMS     Displacement     0.000258     0.001200     YES
 Predicted change in Energy=-1.973283D-08
 Optimization completed.
    -- Stationary point found.
                           ----------------------------
                           !   Optimized Parameters   !
                           ! (Angstroms and Degrees)  !
 --------------------------                            --------------------------
 ! Name  Definition              Value          Derivative Info.                !
 --------------------------------------------------------------------------------
 ! R1    R(1,2)                  1.5249         -DE/DX =    0.0                 !
 ! R2    R(1,5)                  1.4048         -DE/DX =    0.0001              !
 ! R3    R(1,7)                  1.0853         -DE/DX =    0.0                 !
 ! R4    R(1,8)                  1.087          -DE/DX =    0.0                 !
 ! R5    R(2,6)                  1.4048         -DE/DX =    0.0001              !
 ! R6    R(2,9)                  1.0853         -DE/DX =    0.0                 !
 ! R7    R(2,10)                 1.087          -DE/DX =    0.0                 !
 ! R8    R(3,5)                  0.9465         -DE/DX =    0.0                 !
 ! R9    R(4,6)                  0.9465         -DE/DX =    0.0                 !
 ! A1    A(2,1,5)              108.0593         -DE/DX =    0.0                 !
 ! A2    A(2,1,7)              107.758          -DE/DX =    0.0003              !
 ! A3    A(2,1,8)              111.1341         -DE/DX =   -0.0003              !
 ! A4    A(5,1,7)              110.8048         -DE/DX =    0.0012              !
 ! A5    A(5,1,8)              110.9344         -DE/DX =   -0.0012              !
 ! A6    A(7,1,8)              108.1153         -DE/DX =    0.0                 !
 ! A7    A(1,2,6)              108.0593         -DE/DX =    0.0                 !
 ! A8    A(1,2,9)              107.758          -DE/DX =    0.0003              !
 ! A9    A(1,2,10)             111.1341         -DE/DX =   -0.0003              !
 ! A10   A(6,2,9)              110.8048         -DE/DX =    0.0012              !
 ! A11   A(6,2,10)             110.9344         -DE/DX =   -0.0012              !
 ! A12   A(9,2,10)             108.1153         -DE/DX =    0.0                 !
 ! A13   A(1,5,3)              109.5467         -DE/DX =    0.0                 !
 ! A14   A(2,6,4)              109.5467         -DE/DX =    0.0                 !
 ! D1    D(5,1,2,6)           -137.3604         -DE/DX =   -0.0031              !
 ! D2    D(5,1,2,9)            -17.5781         -DE/DX =   -0.0015              !
 ! D3    D(5,1,2,10)           100.7048         -DE/DX =   -0.0014              !
 ! D4    D(7,1,2,6)            -17.5781         -DE/DX =   -0.0015              !
 ! D5    D(7,1,2,9)            102.2042         -DE/DX =    0.0001              !
 ! D6    D(7,1,2,10)          -139.5129         -DE/DX =    0.0002              !
 ! D7    D(8,1,2,6)            100.7048         -DE/DX =   -0.0014              !
 ! D8    D(8,1,2,9)           -139.5129         -DE/DX =    0.0002              !
 ! D9    D(8,1,2,10)           -21.23           -DE/DX =    0.0002              !
 ! D10   D(2,1,5,3)           -177.3992         -DE/DX =    0.0007              !
 ! D11   D(7,1,5,3)             64.7565         -DE/DX =   -0.0003              !
 ! D12   D(8,1,5,3)            -55.3415         -DE/DX =   -0.0004              !
 ! D13   D(1,2,6,4)           -177.3992         -DE/DX =    0.0007              !
 ! D14   D(9,2,6,4)             64.7565         -DE/DX =   -0.0003              !
 ! D15   D(10,2,6,4)           -55.3415         -DE/DX =   -0.0004              !
 --------------------------------------------------------------------------------
 GradGradGradGradGradGradGradGradGradGradGradGradGradGradGradGradGradGrad

                          Input orientation:                          
 ---------------------------------------------------------------------
 Center     Atomic      Atomic             Coordinates (Angstroms)
 Number     Number       Type             X           Y           Z
 ---------------------------------------------------------------------
      1          6           0       -0.420780    0.635797    0.157875
      2          6           0        0.420780   -0.635797    0.157875
      3          1           0       -0.113726    2.494830   -0.299038
      4          1           0        0.113726   -2.494830   -0.299038
      5          8           0        0.376416    1.685613   -0.327707
      6          8           0       -0.376416   -1.685613   -0.327707
      7          1           0       -1.274271    0.467884   -0.491151
      8          1           0       -0.792812    0.859539    1.154374
      9          1           0        1.274271   -0.467884   -0.491151
     10          1           0        0.792812   -0.859539    1.154374
 ---------------------------------------------------------------------
                    Distance matrix (angstroms):
                    1          2          3          4          5
     1  C    0.000000
     2  C    1.524852   0.000000
     3  H    1.938828   3.208627   0.000000
     4  H    3.208627   1.938828   4.994841   0.000000
     5  O    1.404787   2.372067   0.946516   4.188787   0.000000
     6  O    2.372067   1.404787   4.188787   0.946516   3.454262
     7  H    1.085301   2.124275   2.343562   3.277365   2.057753
     8  H    1.086958   2.168373   2.290794   3.766432   2.060596
     9  H    2.124275   1.085301   3.277365   2.343562   2.338891
    10  H    2.168373   1.086958   3.766432   2.290794   2.974517
                    6          7          8          9         10
     6  O    0.000000
     7  H    2.338891   0.000000
     8  H    2.974517   1.758678   0.000000
     9  H    2.057753   2.714909   2.956795   0.000000
    10  H    2.060596   2.956795   2.338681   1.758678   0.000000
 Stoichiometry    C2H6O2
 Framework group  C2[X(C2H6O2)]
 Deg. of freedom    13
 Full point group                 C2      NOp   2
 Largest Abelian subgroup         C2      NOp   2
 Largest concise Abelian subgroup C2      NOp   2
                         Standard orientation:                         
 ---------------------------------------------------------------------
 Center     Atomic      Atomic             Coordinates (Angstroms)
 Number     Number       Type             X           Y           Z
 ---------------------------------------------------------------------
      1          6           0       -0.408555    0.643721    0.234947
      2          6           0        0.408555   -0.643721    0.234947
      3          1           0       -0.066036    2.496548   -0.221966
      4          1           0        0.066036   -2.496548   -0.221966
      5          8           0        0.408555    1.678113   -0.250635
      6          8           0       -0.408555   -1.678113   -0.250635
      7          1           0       -1.265099    0.492147   -0.414080
      8          1           0       -0.776244    0.874531    1.231446
      9          1           0        1.265099   -0.492147   -0.414080
     10          1           0        0.776244   -0.874531    1.231446
 ---------------------------------------------------------------------
 Rotational constants (GHZ):     26.5402022      4.1086642      3.9354138

 **********************************************************************

            Population analysis using the SCF density.

 **********************************************************************

 Orbital symmetries:
       Occupied  (A) (B) (A) (B) (A) (B) (A) (B) (B) (A) (A) (B)
                 (A) (B) (A) (A) (B)
       Virtual   (B) (A) (A) (B) (A) (B) (B) (A) (B) (A) (A) (B)
                 (A) (B) (B) (B) (A) (A) (A) (B) (B) (A) (B) (A)
                 (A) (B) (B) (A) (B) (A) (A) (B) (A) (B) (B) (A)
                 (B) (A) (A) (B) (B) (A) (B) (A) (B) (A) (B) (A)
                 (B) (A) (B) (A) (B) (A) (B)
 The electronic state is 1-A.
 Alpha  occ. eigenvalues --  -20.55683 -20.55683 -11.26882 -11.26821  -1.37037
 Alpha  occ. eigenvalues --   -1.35657  -0.99579  -0.83386  -0.72143  -0.69531
 Alpha  occ. eigenvalues --   -0.63353  -0.58879  -0.58215  -0.52987  -0.47647
 Alpha  occ. eigenvalues --   -0.44819  -0.43213
 Alpha virt. eigenvalues --    0.22093   0.23203   0.28834   0.31417   0.31973
 Alpha virt. eigenvalues --    0.34783   0.39408   0.44468   0.44893   0.74341
 Alpha virt. eigenvalues --    0.80210   0.80859   0.84828   0.88609   0.98610
 Alpha virt. eigenvalues --    1.07162   1.09455   1.10873   1.12965   1.13601
 Alpha virt. eigenvalues --    1.17988   1.20681   1.25478   1.25682   1.29586
 Alpha virt. eigenvalues --    1.31938   1.35196   1.51298   1.51337   1.70357
 Alpha virt. eigenvalues --    1.76589   1.77392   1.97157   2.02263   2.04247
 Alpha virt. eigenvalues --    2.06404   2.13027   2.26887   2.37342   2.38603
 Alpha virt. eigenvalues --    2.40561   2.45507   2.65345   2.74212   2.77425
 Alpha virt. eigenvalues --    2.82281   2.86270   2.90408   2.94469   3.22105
 Alpha virt. eigenvalues --    3.22602   4.15252   4.18282   4.61159   4.88578
          Condensed to atoms (all electrons):
              1          2          3          4          5          6
     1  C    4.824465   0.339350  -0.022948   0.006200   0.206245  -0.047244
     2  C    0.339350   4.824465   0.006200  -0.022948  -0.047244   0.206245
     3  H   -0.022948   0.006200   0.320423   0.000007   0.263014  -0.000111
     4  H    0.006200  -0.022948   0.000007   0.320423  -0.000111   0.263014
     5  O    0.206245  -0.047244   0.263014  -0.000111   8.392339   0.000982
     6  O   -0.047244   0.206245  -0.000111   0.263014   0.000982   8.392339
     7  H    0.406262  -0.053810  -0.003307   0.000047  -0.036430   0.004620
     8  H    0.392792  -0.039398  -0.003554  -0.000319  -0.039454   0.002568
     9  H   -0.053810   0.406262   0.000047  -0.003307   0.004620  -0.036430
    10  H   -0.039398   0.392792  -0.000319  -0.003554   0.002568  -0.039454
              7          8          9         10
     1  C    0.406262   0.392792  -0.053810  -0.039398
     2  C   -0.053810  -0.039398   0.406262   0.392792
     3  H   -0.003307  -0.003554   0.000047  -0.000319
     4  H    0.000047  -0.000319  -0.003307  -0.003554
     5  O   -0.036430  -0.039454   0.004620   0.002568
     6  O    0.004620   0.002568  -0.036430  -0.039454
     7  H    0.544954  -0.040909   0.000388   0.004498
     8  H   -0.040909   0.584754   0.004498  -0.005187
     9  H    0.000388   0.004498   0.544954  -0.040909
    10  H    0.004498  -0.005187  -0.040909   0.584754
 Mulliken atomic charges:
              1
     1  C   -0.011913
     2  C   -0.011913
     3  H    0.440547
     4  H    0.440547
     5  O   -0.746529
     6  O   -0.746529
     7  H    0.173686
     8  H    0.144208
     9  H    0.173686
    10  H    0.144208
 Sum of Mulliken atomic charges =   0.00000
 Mulliken charges with hydrogens summed into heavy atoms:
              1
     1  C    0.305981
     2  C    0.305981
     5  O   -0.305981
     6  O   -0.305981
 Sum of Mulliken charges with hydrogens summed into heavy atoms =   0.00000
 Electronic spatial extent (au):  <R**2>=            332.8037
 Charge=              0.0000 electrons
 Dipole moment (field-independent basis, Debye):
    X=              0.0000    Y=              0.0000    Z=              1.1060  Tot=              1.1060
 Quadrupole moment (field-independent basis, Debye-Ang):
   XX=            -26.1083   YY=            -17.8581   ZZ=            -25.4646
   XY=             -6.2145   XZ=              0.0000   YZ=              0.0000
 Traceless Quadrupole moment (field-independent basis, Debye-Ang):
   XX=             -2.9646   YY=              5.2856   ZZ=             -2.3210
   XY=             -6.2145   XZ=              0.0000   YZ=              0.0000
 Octapole moment (field-independent basis, Debye-Ang**2):
  XXX=              0.0000  YYY=              0.0000  ZZZ=             -0.5160  XYY=              0.0000
  XXY=              0.0000  XXZ=             -0.7468  XZZ=              0.0000  YZZ=              0.0000
  YYZ=             -1.1649  XYZ=              1.2239
 Hexadecapole moment (field-independent basis, Debye-Ang**3):
 XXXX=            -63.7086 YYYY=           -170.6906 ZZZZ=            -44.5138 XXXY=            -10.8662
 XXXZ=              0.0000 YYYX=            -29.1464 YYYZ=              0.0000 ZZZX=              0.0000
 ZZZY=              0.0000 XXYY=            -61.4627 XXZZ=            -17.6580 YYZZ=            -55.1041
 XXYZ=              0.0000 YYXZ=              0.0000 ZZXY=             -4.2877
 N-N= 1.314031713287D+02 E-N=-8.025781686438D+02  KE= 2.285674237218D+02
 Symmetry A    KE= 1.156834707339D+02
 Symmetry B    KE= 1.128839529879D+02
 1\1\GINC-NODE9\FOpt\RHF\6-31G(d)\C2H6O2\WUCH\14-Sep-2010\0\\#HF/6-31G*
  Opt=ModRed MaxDisk=32GB\\12-ethanediol Rotatable Bond Optimization on
  node9.bme.utexas.edu\\0,1\C,-0.4207798875,0.6357967308,0.1578752757\C
 ,0.4207798898,-0.635796729,0.1578752757\H,-0.1137264783,2.4948299633,-
 0.2990375424\H,0.1137264806,-2.4948299615,-0.2990375424\O,0.3764158047
 ,1.685613499,-0.3277066942\O,-0.3764158024,-1.6856134972,-0.3277066942
 \H,-1.2742712135,0.4678840913,-0.4911510849\H,-0.7928118017,0.85953891
 81,1.1543740424\H,1.2742712158,-0.4678840894,-0.4911510849\H,0.7928118
 041,-0.8595389163,1.1543740424\\Version=EM64L-G09RevA.02\State=1-A\HF=
 -228.9173528\RMSD=5.608e-09\RMSF=1.267e-03\Dipole=0.,0.,0.4351254\Quad
 rupole=-2.0253349,3.7509091,-1.7255742,-4.7341036,0.,0.\PG=C02 [X(C2H6
 O2)]\\@


 I DON'T EXACTLY UNDERSTAND WHAT YOU ARE SAYING,
 BUT YOU ARE ABSOLUTELY RIGHT.
     M.S.GORDON, IN A NDSU FACULTY MEETING
 Job cpu time:  0 days  0 hours  0 minutes 36.6 seconds.
 File lengths (MBytes):  RWF=      5 Int=      0 D2E=      0 Chk=      2 Scr=      1
 Normal termination of Gaussian 09 at Tue Sep 14 14:18:46 2010.
