 Entering Gaussian System, Link 0=/opt/g09/gaussian/g09/bin/g09
 Input=12-ethanediol-opt-5-1-2-6-283.com
 Output=12-ethanediol-opt-5-1-2-6-283.log
 Initial command:
 /opt/g09/gaussian/g09/bin/l1.exe /scratch/Gau-12-ethanediol/Gau-19762.inp -scrdir=/scratch/Gau-12-ethanediol/
 Entering Link 1 = /opt/g09/gaussian/g09/bin/l1.exe PID=     19763.
  
 Copyright (c) 1988,1990,1992,1993,1995,1998,2003,2009, Gaussian, Inc.
                  All Rights Reserved.
  
 This is part of the Gaussian(R) 09 program.  It is based on
 the Gaussian(R) 03 system (copyright 2003, Gaussian, Inc.),
 the Gaussian(R) 98 system (copyright 1998, Gaussian, Inc.),
 the Gaussian(R) 94 system (copyright 1995, Gaussian, Inc.),
 the Gaussian 92(TM) system (copyright 1992, Gaussian, Inc.),
 the Gaussian 90(TM) system (copyright 1990, Gaussian, Inc.),
 the Gaussian 88(TM) system (copyright 1988, Gaussian, Inc.),
 the Gaussian 86(TM) system (copyright 1986, Carnegie Mellon
 University), and the Gaussian 82(TM) system (copyright 1983,
 Carnegie Mellon University). Gaussian is a federally registered
 trademark of Gaussian, Inc.
  
 This software contains proprietary and confidential information,
 including trade secrets, belonging to Gaussian, Inc.
  
 This software is provided under written license and may be
 used, copied, transmitted, or stored only in accord with that
 written license.
  
 The following legend is applicable only to US Government
 contracts under FAR:
  
                    RESTRICTED RIGHTS LEGEND
  
 Use, reproduction and disclosure by the US Government is
 subject to restrictions as set forth in subparagraphs (a)
 and (c) of the Commercial Computer Software - Restricted
 Rights clause in FAR 52.227-19.
  
 Gaussian, Inc.
 340 Quinnipiac St., Bldg. 40, Wallingford CT 06492
  
  
 ---------------------------------------------------------------
 Warning -- This program may not be used in any manner that
 competes with the business of Gaussian, Inc. or will provide
 assistance to any competitor of Gaussian, Inc.  The licensee
 of this program is prohibited from giving any competitor of
 Gaussian, Inc. access to this program.  By using this program,
 the user acknowledges that Gaussian, Inc. is engaged in the
 business of creating and licensing software in the field of
 computational chemistry and represents and warrants to the
 licensee that it is not a competitor of Gaussian, Inc. and that
 it will not use this program in any manner prohibited above.
 ---------------------------------------------------------------
  

 Cite this work as:
 Gaussian 09, Revision A.02,
 M. J. Frisch, G. W. Trucks, H. B. Schlegel, G. E. Scuseria, 
 M. A. Robb, J. R. Cheeseman, G. Scalmani, V. Barone, B. Mennucci, 
 G. A. Petersson, H. Nakatsuji, M. Caricato, X. Li, H. P. Hratchian, 
 A. F. Izmaylov, J. Bloino, G. Zheng, J. L. Sonnenberg, M. Hada, 
 M. Ehara, K. Toyota, R. Fukuda, J. Hasegawa, M. Ishida, T. Nakajima, 
 Y. Honda, O. Kitao, H. Nakai, T. Vreven, J. A. Montgomery, Jr., 
 J. E. Peralta, F. Ogliaro, M. Bearpark, J. J. Heyd, E. Brothers, 
 K. N. Kudin, V. N. Staroverov, R. Kobayashi, J. Normand, 
 K. Raghavachari, A. Rendell, J. C. Burant, S. S. Iyengar, J. Tomasi, 
 M. Cossi, N. Rega, J. M. Millam, M. Klene, J. E. Knox, J. B. Cross, 
 V. Bakken, C. Adamo, J. Jaramillo, R. Gomperts, R. E. Stratmann, 
 O. Yazyev, A. J. Austin, R. Cammi, C. Pomelli, J. W. Ochterski, 
 R. L. Martin, K. Morokuma, V. G. Zakrzewski, G. A. Voth, 
 P. Salvador, J. J. Dannenberg, S. Dapprich, A. D. Daniels, 
 O. Farkas, J. B. Foresman, J. V. Ortiz, J. Cioslowski, 
 and D. J. Fox, Gaussian, Inc., Wallingford CT, 2009.
 
 ******************************************
 Gaussian 09:  EM64L-G09RevA.02 11-Jun-2009
                14-Sep-2010 
 ******************************************
 %RWF=/scratch/Gau-12-ethanediol/,32GB
 %Nosave
 %Chk=12-ethanediol-opt-5-1-2-6-283.chk
 %Mem=389242KB
 %Nproc=1
 Will use up to    1 processors via shared memory.
 ----------------------------------
 #HF/6-31G* Opt=ModRed MaxDisk=32GB
 ----------------------------------
 1/18=120,19=15,38=1/1,3;
 2/9=110,12=2,17=6,18=5,40=1/2;
 3/5=1,6=6,7=1,11=9,16=1,25=1,30=1,71=1/1,2,3;
 4//1;
 5/5=2,38=5/2;
 6/7=2,8=2,9=2,10=2,28=1/1;
 7//1,2,3,16;
 1/18=20,19=15/3(2);
 2/9=110/2;
 99//99;
 2/9=110/2;
 3/5=1,6=6,7=1,11=9,16=1,25=1,30=1,71=1/1,2,3;
 4/5=5,16=3/1;
 5/5=2,38=5/2;
 7//1,2,3,16;
 1/18=20,19=15/3(-5);
 2/9=110/2;
 6/7=2,8=2,9=2,10=2,19=2,28=1/1;
 99/9=1/99;
 -----------------------------------------------------------------
 12-ethanediol Rotatable Bond Optimization on node9.bme.utexas.edu
 -----------------------------------------------------------------
 Symbolic Z-matrix:
 Charge =  0 Multiplicity = 1
 C                    -0.19494   0.73288   0.58118 
 C                     0.19494  -0.73288   0.58118 
 H                    -0.10319   2.22029  -0.64275 
 H                     0.10319  -2.22029  -0.64275 
 O                     0.19494   1.32244  -0.62353 
 O                    -0.19494  -1.32244  -0.62353 
 H                    -1.27362   0.81089   0.70475 
 H                     0.27357   1.21315   1.4392 
 H                     1.27362  -0.81089   0.70475 
 H                    -0.27357  -1.21315   1.4392 
 
 The following ModRedundant input section has been read:
 D    5    1    2    6 282.64 F                                                
 Iteration  1 RMS(Cart)=  0.02203572 RMS(Int)=  0.07457517
 Iteration  2 RMS(Cart)=  0.00859689 RMS(Int)=  0.07173571
 Iteration  3 RMS(Cart)=  0.00318658 RMS(Int)=  0.07084662
 Iteration  4 RMS(Cart)=  0.00118452 RMS(Int)=  0.07054032
 Iteration  5 RMS(Cart)=  0.00044015 RMS(Int)=  0.07042989
 Iteration  6 RMS(Cart)=  0.00016353 RMS(Int)=  0.07038934
 Iteration  7 RMS(Cart)=  0.00006076 RMS(Int)=  0.07037433
 Iteration  8 RMS(Cart)=  0.00002257 RMS(Int)=  0.07036877
 Iteration  9 RMS(Cart)=  0.00000839 RMS(Int)=  0.07036670
 Iteration 10 RMS(Cart)=  0.00000312 RMS(Int)=  0.07036594
 Iteration 11 RMS(Cart)=  0.00000116 RMS(Int)=  0.07036565
 Iteration 12 RMS(Cart)=  0.00000043 RMS(Int)=  0.07036555
 Iteration  1 RMS(Cart)=  0.02251104 RMS(Int)=  0.05601334
 Iteration  2 RMS(Cart)=  0.02284590 RMS(Int)=  0.05220615
 Iteration  3 RMS(Cart)=  0.02318221 RMS(Int)=  0.05562255
 Iteration  4 RMS(Cart)=  0.02155342 RMS(Int)=  0.06415440
 Iteration  5 RMS(Cart)=  0.01375576 RMS(Int)=  0.07137716
 Iteration  6 RMS(Cart)=  0.00873709 RMS(Int)=  0.07644869
 Iteration  7 RMS(Cart)=  0.00553430 RMS(Int)=  0.07981038
 Iteration  8 RMS(Cart)=  0.00349997 RMS(Int)=  0.08198685
 Iteration  9 RMS(Cart)=  0.00221132 RMS(Int)=  0.08338009
 Iteration 10 RMS(Cart)=  0.00139633 RMS(Int)=  0.08426661
 Iteration 11 RMS(Cart)=  0.00088139 RMS(Int)=  0.08482878
 Iteration 12 RMS(Cart)=  0.00055622 RMS(Int)=  0.08518455
 Iteration 13 RMS(Cart)=  0.00035097 RMS(Int)=  0.08540943
 Iteration 14 RMS(Cart)=  0.00022144 RMS(Int)=  0.08555147
 Iteration 15 RMS(Cart)=  0.00013971 RMS(Int)=  0.08564115
 Iteration 16 RMS(Cart)=  0.00008814 RMS(Int)=  0.08569774
 Iteration 17 RMS(Cart)=  0.00005560 RMS(Int)=  0.08573346
 Iteration 18 RMS(Cart)=  0.00003508 RMS(Int)=  0.08575599
 Iteration 19 RMS(Cart)=  0.00002213 RMS(Int)=  0.08577021
 Iteration 20 RMS(Cart)=  0.00001396 RMS(Int)=  0.08577918
 Iteration 21 RMS(Cart)=  0.00000881 RMS(Int)=  0.08578484
 Iteration 22 RMS(Cart)=  0.00000556 RMS(Int)=  0.08578841
 Iteration 23 RMS(Cart)=  0.00000350 RMS(Int)=  0.08579066
 Iteration 24 RMS(Cart)=  0.00000221 RMS(Int)=  0.08579208
 Iteration 25 RMS(Cart)=  0.00000139 RMS(Int)=  0.08579298
 Iteration 26 RMS(Cart)=  0.00000088 RMS(Int)=  0.08579355

 GradGradGradGradGradGradGradGradGradGradGradGradGradGradGradGradGradGrad
 Berny optimization.
 Initialization pass.
                           ----------------------------
                           !    Initial Parameters    !
                           ! (Angstroms and Degrees)  !
 --------------------------                            --------------------------
 ! Name  Definition              Value          Derivative Info.                !
 --------------------------------------------------------------------------------
 ! R1    R(1,2)                  1.5176         estimate D2E/DX2                !
 ! R2    R(1,5)                  1.3998         estimate D2E/DX2                !
 ! R3    R(1,7)                  1.0888         estimate D2E/DX2                !
 ! R4    R(1,8)                  1.0892         estimate D2E/DX2                !
 ! R5    R(2,6)                  1.3998         estimate D2E/DX2                !
 ! R6    R(2,9)                  1.0888         estimate D2E/DX2                !
 ! R7    R(2,10)                 1.0892         estimate D2E/DX2                !
 ! R8    R(3,5)                  0.9464         estimate D2E/DX2                !
 ! R9    R(4,6)                  0.9464         estimate D2E/DX2                !
 ! A1    A(2,1,5)              109.5922         estimate D2E/DX2                !
 ! A2    A(2,1,7)              111.1909         estimate D2E/DX2                !
 ! A3    A(2,1,8)              105.5163         estimate D2E/DX2                !
 ! A4    A(5,1,7)              121.0154         estimate D2E/DX2                !
 ! A5    A(5,1,8)               99.948          estimate D2E/DX2                !
 ! A6    A(7,1,8)              107.9269         estimate D2E/DX2                !
 ! A7    A(1,2,6)              109.5922         estimate D2E/DX2                !
 ! A8    A(1,2,9)              111.1909         estimate D2E/DX2                !
 ! A9    A(1,2,10)             105.5163         estimate D2E/DX2                !
 ! A10   A(6,2,9)              121.0154         estimate D2E/DX2                !
 ! A11   A(6,2,10)              99.948          estimate D2E/DX2                !
 ! A12   A(9,2,10)             107.9269         estimate D2E/DX2                !
 ! A13   A(1,5,3)              109.2529         estimate D2E/DX2                !
 ! A14   A(2,6,4)              109.2529         estimate D2E/DX2                !
 ! D1    D(5,1,2,6)            -77.3597         Frozen                          !
 ! D2    D(5,1,2,9)             59.0751         estimate D2E/DX2                !
 ! D3    D(5,1,2,10)           175.8347         estimate D2E/DX2                !
 ! D4    D(7,1,2,6)             59.0751         estimate D2E/DX2                !
 ! D5    D(7,1,2,9)           -164.49           estimate D2E/DX2                !
 ! D6    D(7,1,2,10)           -47.7304         estimate D2E/DX2                !
 ! D7    D(8,1,2,6)            175.8347         estimate D2E/DX2                !
 ! D8    D(8,1,2,9)            -47.7304         estimate D2E/DX2                !
 ! D9    D(8,1,2,10)            69.0292         estimate D2E/DX2                !
 ! D10   D(2,1,5,3)           -176.7459         estimate D2E/DX2                !
 ! D11   D(7,1,5,3)             51.8249         estimate D2E/DX2                !
 ! D12   D(8,1,5,3)            -66.2149         estimate D2E/DX2                !
 ! D13   D(1,2,6,4)           -176.7459         estimate D2E/DX2                !
 ! D14   D(9,2,6,4)             51.8249         estimate D2E/DX2                !
 ! D15   D(10,2,6,4)           -66.2149         estimate D2E/DX2                !
 --------------------------------------------------------------------------------
 Trust Radius=3.00D-01 FncErr=1.00D-07 GrdErr=1.00D-07
 Number of steps in this run=  48 maximum allowed number of steps= 100.
 GradGradGradGradGradGradGradGradGradGradGradGradGradGradGradGradGradGrad

                          Input orientation:                          
 ---------------------------------------------------------------------
 Center     Atomic      Atomic             Coordinates (Angstroms)
 Number     Number       Type             X           Y           Z
 ---------------------------------------------------------------------
      1          6           0       -0.277520    0.706222    0.496060
      2          6           0        0.277520   -0.706222    0.496060
      3          1           0        0.006112    2.337368   -0.497710
      4          1           0       -0.006112   -2.337368   -0.497710
      5          8           0        0.317873    1.444508   -0.533405
      6          8           0       -0.317873   -1.444508   -0.533405
      7          1           0       -1.357670    0.704635    0.633045
      8          1           0        0.169391    1.194916    1.360856
      9          1           0        1.357670   -0.704635    0.633045
     10          1           0       -0.169391   -1.194916    1.360856
 ---------------------------------------------------------------------
                    Distance matrix (angstroms):
                    1          2          3          4          5
     1  C    0.000000
     2  C    1.517587   0.000000
     3  H    1.930974   3.213204   0.000000
     4  H    3.213204   1.930974   4.674751   0.000000
     5  O    1.399770   2.384757   0.946397   3.795895   0.000000
     6  O    2.384757   1.399770   3.795895   0.946397   2.958139
     7  H    1.088802   2.164054   2.409216   3.515551   2.171511
     8  H    1.089230   2.091384   2.187721   3.995259   1.916394
     9  H    2.164054   1.088802   3.515551   2.409216   2.657179
    10  H    2.091384   1.089230   3.995259   2.187721   3.285149
                    6          7          8          9         10
     6  O    0.000000
     7  H    2.657179   0.000000
     8  H    3.285149   1.761249   0.000000
     9  H    2.171511   3.059267   2.355846   0.000000
    10  H    1.916394   2.355846   2.413725   1.761249   0.000000
 Stoichiometry    C2H6O2
 Framework group  C2[X(C2H6O2)]
 Deg. of freedom    13
 Full point group                 C2      NOp   2
 Largest Abelian subgroup         C2      NOp   2
 Largest concise Abelian subgroup C2      NOp   2
                         Standard orientation:                         
 ---------------------------------------------------------------------
 Center     Atomic      Atomic             Coordinates (Angstroms)
 Number     Number       Type             X           Y           Z
 ---------------------------------------------------------------------
      1          6           0       -0.290720    0.700892    0.483983
      2          6           0        0.290720   -0.700892    0.483983
      3          1           0       -0.037736    2.337071   -0.509787
      4          1           0        0.037736   -2.337071   -0.509787
      5          8           0        0.290720    1.450217   -0.545482
      6          8           0       -0.290720   -1.450217   -0.545482
      7          1           0       -1.370649    0.679043    0.620968
      8          1           0        0.146945    1.197883    1.348778
      9          1           0        1.370649   -0.679043    0.620968
     10          1           0       -0.146945   -1.197883    1.348778
 ---------------------------------------------------------------------
 Rotational constants (GHZ):     18.0590303      4.9322116      4.4165995
 Standard basis: 6-31G(d) (6D, 7F)
 There are    36 symmetry adapted basis functions of A   symmetry.
 There are    36 symmetry adapted basis functions of B   symmetry.
 Integral buffers will be    131072 words long.
 Raffenetti 1 integral format.
 Two-electron integral symmetry is turned on.
    72 basis functions,   136 primitive gaussians,    72 cartesian basis functions
    17 alpha electrons       17 beta electrons
       nuclear repulsion energy       132.7967313013 Hartrees.
 NAtoms=   10 NActive=   10 NUniq=    5 SFac= 3.00D+00 NAtFMM=   80 NAOKFM=F Big=F
 One-electron integrals computed using PRISM.
 NBasis=    72 RedAO= T  NBF=    36    36
 NBsUse=    72 1.00D-06 NBFU=    36    36
 Harris functional with IExCor=  205 diagonalized for initial guess.
 ExpMin= 1.61D-01 ExpMax= 5.48D+03 ExpMxC= 8.25D+02 IAcc=1 IRadAn=         1 AccDes= 0.00D+00
 HarFok:  IExCor=  205 AccDes= 0.00D+00 IRadAn=         1 IDoV= 1
 ScaDFX=  1.000000  1.000000  1.000000  1.000000
 FoFCou: FMM=F IPFlag=           0 FMFlag=      100000 FMFlg1=           0
         NFxFlg=           0 DoJE=T BraDBF=F KetDBF=T FulRan=T
         Omega=  0.000000  0.000000  1.000000  0.000000  0.000000 ICntrl=     500 IOpCl=  0
         NMat0=    1 NMatS0=    1 NMatT0=    0 NMatD0=    1 NMtDS0=    0 NMtDT0=    0
         I1Cent=           4 NGrid=           0.
 Petite list used in FoFCou.
 Initial guess orbital symmetries:
       Occupied  (A) (B) (A) (B) (A) (B) (A) (B) (A) (B) (A) (B)
                 (A) (B) (A) (A) (B)
       Virtual   (A) (B) (A) (B) (A) (B) (B) (B) (A) (A) (B) (A)
                 (B) (B) (A) (A) (B) (B) (A) (A) (B) (A) (B) (A)
                 (B) (A) (A) (B) (B) (B) (A) (A) (B) (A) (A) (B)
                 (B) (A) (B) (A) (B) (A) (B) (A) (A) (B) (B) (A)
                 (B) (A) (B) (B) (A) (A) (B)
 The electronic state of the initial guess is 1-A.
 Requested convergence on RMS density matrix=1.00D-08 within 128 cycles.
 Requested convergence on MAX density matrix=1.00D-06.
 Requested convergence on             energy=1.00D-06.
 No special actions if energy rises.
 Keep R1 ints in memory in canonical form, NReq=4309302.
 SCF Done:  E(RHF) =  -228.901192311     A.U. after   11 cycles
             Convg  =    0.8309D-08             -V/T =  2.0014

 **********************************************************************

            Population analysis using the SCF density.

 **********************************************************************

 Orbital symmetries:
       Occupied  (B) (A) (A) (B) (A) (B) (A) (B) (A) (B) (B) (A)
                 (A) (B) (A) (A) (B)
       Virtual   (A) (B) (A) (B) (B) (A) (B) (A) (B) (A) (B) (A)
                 (B) (B) (A) (A) (B) (B) (A) (A) (A) (B) (B) (A)
                 (B) (A) (A) (B) (B) (B) (A) (A) (B) (A) (B) (A)
                 (B) (A) (B) (A) (B) (A) (B) (A) (A) (B) (B) (A)
                 (B) (A) (B) (B) (A) (A) (B)
 The electronic state is 1-A.
 Alpha  occ. eigenvalues --  -20.55267 -20.55267 -11.27167 -11.27103  -1.37146
 Alpha  occ. eigenvalues --   -1.35317  -1.00134  -0.82956  -0.71298  -0.70901
 Alpha  occ. eigenvalues --   -0.61848  -0.59717  -0.58962  -0.52360  -0.47515
 Alpha  occ. eigenvalues --   -0.43631  -0.43161
 Alpha virt. eigenvalues --    0.21474   0.24555   0.27675   0.30167   0.32371
 Alpha virt. eigenvalues --    0.34328   0.41331   0.41349   0.42700   0.75849
 Alpha virt. eigenvalues --    0.80143   0.81542   0.82015   0.90668   0.92385
 Alpha virt. eigenvalues --    1.05687   1.11404   1.12395   1.13538   1.18088
 Alpha virt. eigenvalues --    1.20726   1.21152   1.25985   1.29215   1.29816
 Alpha virt. eigenvalues --    1.31905   1.44002   1.49576   1.53689   1.67072
 Alpha virt. eigenvalues --    1.77825   1.83747   1.98156   1.99660   2.02172
 Alpha virt. eigenvalues --    2.02380   2.09447   2.19124   2.31431   2.39485
 Alpha virt. eigenvalues --    2.48377   2.60014   2.64746   2.68384   2.77205
 Alpha virt. eigenvalues --    2.79816   2.85313   2.97987   3.02780   3.20551
 Alpha virt. eigenvalues --    3.25557   4.14870   4.19827   4.64611   4.85620
          Condensed to atoms (all electrons):
              1          2          3          4          5          6
     1  C    4.798993   0.366273  -0.022020   0.006168   0.201558  -0.054865
     2  C    0.366273   4.798993   0.006168  -0.022020  -0.054865   0.201558
     3  H   -0.022020   0.006168   0.322599   0.000013   0.262291  -0.000171
     4  H    0.006168  -0.022020   0.000013   0.322599  -0.000171   0.262291
     5  O    0.201558  -0.054865   0.262291  -0.000171   8.401137   0.004128
     6  O   -0.054865   0.201558  -0.000171   0.262291   0.004128   8.401137
     7  H    0.381398  -0.036370  -0.003257  -0.000171  -0.027102   0.000673
     8  H    0.411126  -0.050963  -0.004164  -0.000227  -0.060475   0.003473
     9  H   -0.036370   0.381398  -0.000171  -0.003257   0.000673  -0.027102
    10  H   -0.050963   0.411126  -0.000227  -0.004164   0.003473  -0.060475
              7          8          9         10
     1  C    0.381398   0.411126  -0.036370  -0.050963
     2  C   -0.036370  -0.050963   0.381398   0.411126
     3  H   -0.003257  -0.004164  -0.000171  -0.000227
     4  H   -0.000171  -0.000227  -0.003257  -0.004164
     5  O   -0.027102  -0.060475   0.000673   0.003473
     6  O    0.000673   0.003473  -0.027102  -0.060475
     7  H    0.566267  -0.044461   0.004999  -0.003587
     8  H   -0.044461   0.616173  -0.003587   0.001707
     9  H    0.004999  -0.003587   0.566267  -0.044461
    10  H   -0.003587   0.001707  -0.044461   0.616173
 Mulliken atomic charges:
              1
     1  C   -0.001299
     2  C   -0.001299
     3  H    0.438939
     4  H    0.438939
     5  O   -0.730647
     6  O   -0.730647
     7  H    0.161610
     8  H    0.131397
     9  H    0.161610
    10  H    0.131397
 Sum of Mulliken atomic charges =   0.00000
 Mulliken charges with hydrogens summed into heavy atoms:
              1
     1  C    0.291708
     2  C    0.291708
     5  O   -0.291708
     6  O   -0.291708
 Sum of Mulliken charges with hydrogens summed into heavy atoms =   0.00000
 Electronic spatial extent (au):  <R**2>=            311.0179
 Charge=              0.0000 electrons
 Dipole moment (field-independent basis, Debye):
    X=              0.0000    Y=              0.0000    Z=              2.2702  Tot=              2.2702
 Quadrupole moment (field-independent basis, Debye-Ang):
   XX=            -25.2919   YY=            -15.8456   ZZ=            -26.8856
   XY=             -3.7337   XZ=              0.0000   YZ=              0.0000
 Traceless Quadrupole moment (field-independent basis, Debye-Ang):
   XX=             -2.6175   YY=              6.8288   ZZ=             -4.2113
   XY=             -3.7337   XZ=              0.0000   YZ=              0.0000
 Octapole moment (field-independent basis, Debye-Ang**2):
  XXX=              0.0000  YYY=              0.0000  ZZZ=             -2.9138  XYY=              0.0000
  XXY=              0.0000  XXZ=             -0.1119  XZZ=              0.0000  YZZ=              0.0000
  YYZ=             -4.4168  XYZ=              1.8212
 Hexadecapole moment (field-independent basis, Debye-Ang**3):
 XXXX=            -47.7411 YYYY=           -143.1626 ZZZZ=            -81.2124 XXXY=             -6.6004
 XXXZ=              0.0000 YYYX=            -13.4483 YYYZ=              0.0000 ZZZX=              0.0000
 ZZZY=              0.0000 XXYY=            -50.3298 XXZZ=            -21.2827 YYZZ=            -51.8536
 XXYZ=              0.0000 YYXZ=              0.0000 ZZXY=             -1.6396
 N-N= 1.327967313013D+02 E-N=-8.053859938889D+02  KE= 2.285851408319D+02
 Symmetry A    KE= 1.154964094986D+02
 Symmetry B    KE= 1.130887313333D+02
 Calling FoFJK, ICntrl=      2127 FMM=F ISym2X=1 I1Cent= 0 IOpClX= 0 NMat=1 NMatS=1 NMatT=0.
 ***** Axes restored to original set *****
 -------------------------------------------------------------------
 Center     Atomic                   Forces (Hartrees/Bohr)
 Number     Number              X              Y              Z
 -------------------------------------------------------------------
      1        6           0.043599937    0.008413564    0.025309407
      2        6          -0.043599934   -0.008413564    0.025309411
      3        1           0.000002189    0.000233620   -0.001181272
      4        1          -0.000002190   -0.000233620   -0.001181272
      5        8          -0.018034700   -0.002886210   -0.022832840
      6        8           0.018034698    0.002886210   -0.022832842
      7        1           0.001448707    0.003602181   -0.017846670
      8        1          -0.013070646   -0.010100209    0.016551373
      9        1          -0.001448709   -0.003602181   -0.017846670
     10        1           0.013070648    0.010100209    0.016551372
 -------------------------------------------------------------------
 Cartesian Forces:  Max     0.043599937 RMS     0.017027546

 GradGradGradGradGradGradGradGradGradGradGradGradGradGradGradGradGradGrad
 Berny optimization.
 Internal  Forces:  Max     0.026797831 RMS     0.009540001
 Search for a local minimum.
 Step number   1 out of a maximum of   48
 All quantities printed in internal units (Hartrees-Bohrs-Radians)
 Mixed Optimization -- RFO/linear search
 Second derivative matrix not updated -- first step.
     Eigenvalues ---    0.01695   0.01695   0.01896   0.04651   0.06178
     Eigenvalues ---    0.06588   0.11363   0.11371   0.13644   0.13967
     Eigenvalues ---    0.16000   0.16000   0.22019   0.22022   0.30600
     Eigenvalues ---    0.34902   0.34902   0.34951   0.34951   0.45659
     Eigenvalues ---    0.45659   0.58505   0.585051000.000001000.00000
     Eigenvalues --- 1000.000001000.000001000.000001000.000001000.00000
     Eigenvalues --- 1000.000001000.000001000.000001000.000001000.00000
     Eigenvalues --- 1000.000001000.000001000.00000
 RFO step:  Lambda=-2.35942417D-02 EMin= 1.69481874D-02
 Linear search not attempted -- first point.
 Maximum step size (   0.300) exceeded in Quadratic search.
    -- Step size scaled by   0.427
 Iteration  1 RMS(Cart)=  0.03849045 RMS(Int)=  0.00123129
 Iteration  2 RMS(Cart)=  0.00120465 RMS(Int)=  0.00028759
 Iteration  3 RMS(Cart)=  0.00000068 RMS(Int)=  0.00028759
 Iteration  1 RMS(Cart)=  0.00000051 RMS(Int)=  0.00000054
 ClnCor:  largest displacement from symmetrization is 5.68D-11 for atom     4.
 Variable       Old X    -DE/DX   Delta X   Delta X   Delta X     New X
                                 (Linear)    (Quad)   (Total)
    R1        2.86782  -0.00579   0.00000  -0.00750  -0.00750   2.86032
    R2        2.64518   0.00859   0.00000   0.00765   0.00765   2.65283
    R3        2.05754  -0.00369   0.00000  -0.00422  -0.00422   2.05331
    R4        2.05835   0.00325   0.00000   0.00372   0.00372   2.06207
    R5        2.64518   0.00859   0.00000   0.00765   0.00765   2.65283
    R6        2.05754  -0.00369   0.00000  -0.00422  -0.00422   2.05331
    R7        2.05835   0.00325   0.00000   0.00372   0.00372   2.06207
    R8        1.78843   0.00018   0.00000   0.00012   0.00012   1.78855
    R9        1.78843   0.00018   0.00000   0.00012   0.00012   1.78855
    A1        1.91275   0.00071   0.00000  -0.00003  -0.00051   1.91223
    A2        1.94065   0.00279   0.00000  -0.00231  -0.00288   1.93777
    A3        1.84161  -0.00364   0.00000  -0.00376  -0.00406   1.83755
    A4        2.11212  -0.01606   0.00000  -0.04039  -0.04057   2.07155
    A5        1.74442   0.02033   0.00000   0.05889   0.05899   1.80341
    A6        1.88368  -0.00126   0.00000  -0.00198  -0.00162   1.88206
    A7        1.91275   0.00071   0.00000  -0.00003  -0.00051   1.91223
    A8        1.94065   0.00279   0.00000  -0.00231  -0.00288   1.93777
    A9        1.84161  -0.00364   0.00000  -0.00376  -0.00406   1.83755
   A10        2.11212  -0.01606   0.00000  -0.04039  -0.04057   2.07155
   A11        1.74442   0.02033   0.00000   0.05889   0.05899   1.80341
   A12        1.88368  -0.00126   0.00000  -0.00198  -0.00162   1.88206
   A13        1.90682   0.00177   0.00000   0.00412   0.00412   1.91095
   A14        1.90682   0.00177   0.00000   0.00412   0.00412   1.91095
    D1       -1.35018   0.02680   0.00000   0.00000   0.00000  -1.35018
    D2        1.03106   0.00731   0.00000  -0.05934  -0.05935   0.97171
    D3        3.06890   0.00514   0.00000  -0.06503  -0.06502   3.00387
    D4        1.03106   0.00731   0.00000  -0.05934  -0.05935   0.97171
    D5       -2.87089  -0.01218   0.00000  -0.11869  -0.11870  -2.98959
    D6       -0.83305  -0.01435   0.00000  -0.12437  -0.12437  -0.95743
    D7        3.06890   0.00514   0.00000  -0.06503  -0.06502   3.00387
    D8       -0.83305  -0.01435   0.00000  -0.12437  -0.12437  -0.95743
    D9        1.20479  -0.01653   0.00000  -0.13005  -0.13005   1.07474
   D10       -3.08480  -0.00581   0.00000  -0.02602  -0.02588  -3.11068
   D11        0.90452   0.00525   0.00000   0.01818   0.01751   0.92202
   D12       -1.15567  -0.00056   0.00000  -0.00395  -0.00340  -1.15907
   D13       -3.08480  -0.00581   0.00000  -0.02602  -0.02588  -3.11068
   D14        0.90452   0.00525   0.00000   0.01818   0.01751   0.92202
   D15       -1.15567  -0.00056   0.00000  -0.00395  -0.00340  -1.15907
         Item               Value     Threshold  Converged?
 Maximum Force            0.015604     0.000450     NO 
 RMS     Force            0.006395     0.000300     NO 
 Maximum Displacement     0.096531     0.001800     NO 
 RMS     Displacement     0.038546     0.001200     NO 
 Predicted change in Energy=-8.983782D-03
 GradGradGradGradGradGradGradGradGradGradGradGradGradGradGradGradGradGrad

                          Input orientation:                          
 ---------------------------------------------------------------------
 Center     Atomic      Atomic             Coordinates (Angstroms)
 Number     Number       Type             X           Y           Z
 ---------------------------------------------------------------------
      1          6           0       -0.271429    0.706460    0.504955
      2          6           0        0.271429   -0.706460    0.504955
      3          1           0        0.011846    2.332338   -0.509602
      4          1           0       -0.011846   -2.332338   -0.509602
      5          8           0        0.331682    1.441737   -0.527675
      6          8           0       -0.331682   -1.441737   -0.527675
      7          1           0       -1.355263    0.707676    0.581963
      8          1           0        0.128369    1.168206    1.409205
      9          1           0        1.355263   -0.707676    0.581963
     10          1           0       -0.128369   -1.168206    1.409205
 ---------------------------------------------------------------------
                    Distance matrix (angstroms):
                    1          2          3          4          5
     1  C    0.000000
     2  C    1.513617   0.000000
     3  H    1.937280   3.214187   0.000000
     4  H    3.214187   1.937280   4.664737   0.000000
     5  O    1.403817   2.384262   0.946463   3.789721   0.000000
     6  O    2.384262   1.403817   3.789721   0.946463   2.958797
     7  H    1.086567   2.156812   2.387474   3.498281   2.148471
     8  H    1.091200   2.086266   2.247355   3.994408   1.966637
     9  H    2.156812   1.086567   3.498281   2.387474   2.626593
    10  H    2.086266   1.091200   3.994408   2.247355   3.282524
                    6          7          8          9         10
     6  O    0.000000
     7  H    2.626593   0.000000
     8  H    3.282524   1.759995   0.000000
     9  H    2.148471   3.057805   2.389253   0.000000
    10  H    1.966637   2.389253   2.350476   1.759995   0.000000
 Stoichiometry    C2H6O2
 Framework group  C2[X(C2H6O2)]
 Deg. of freedom    13
 Full point group                 C2      NOp   2
 Largest Abelian subgroup         C2      NOp   2
 Largest concise Abelian subgroup C2      NOp   2
                         Standard orientation:                         
 ---------------------------------------------------------------------
 Center     Atomic      Atomic             Coordinates (Angstroms)
 Number     Number       Type             X           Y           Z
 ---------------------------------------------------------------------
      1          6           0       -0.291130    0.698572    0.487902
      2          6           0        0.291130   -0.698572    0.487902
      3          1           0       -0.053550    2.331754   -0.526655
      4          1           0        0.053550   -2.331754   -0.526655
      5          8           0        0.291130    1.450470   -0.544728
      6          8           0       -0.291130   -1.450470   -0.544728
      7          1           0       -1.374571    0.669400    0.564911
      8          1           0        0.095566    1.171346    1.392153
      9          1           0        1.374571   -0.669400    0.564911
     10          1           0       -0.095566   -1.171346    1.392153
 ---------------------------------------------------------------------
 Rotational constants (GHZ):     17.9013886      4.9440101      4.4192318
 Standard basis: 6-31G(d) (6D, 7F)
 There are    36 symmetry adapted basis functions of A   symmetry.
 There are    36 symmetry adapted basis functions of B   symmetry.
 Integral buffers will be    131072 words long.
 Raffenetti 1 integral format.
 Two-electron integral symmetry is turned on.
    72 basis functions,   136 primitive gaussians,    72 cartesian basis functions
    17 alpha electrons       17 beta electrons
       nuclear repulsion energy       132.6985874692 Hartrees.
 NAtoms=   10 NActive=   10 NUniq=    5 SFac= 3.00D+00 NAtFMM=   80 NAOKFM=F Big=F
 One-electron integrals computed using PRISM.
 NBasis=    72 RedAO= T  NBF=    36    36
 NBsUse=    72 1.00D-06 NBFU=    36    36
 Initial guess read from the read-write file.
 B after Tr=     0.000000    0.000000    0.000000
         Rot=    1.000000    0.000000    0.000000    0.000000 Ang=   0.00 deg.
 Initial guess orbital symmetries:
       Occupied  (B) (A) (A) (B) (A) (B) (A) (B) (A) (B) (B) (A)
                 (A) (B) (A) (A) (B)
       Virtual   (A) (B) (A) (B) (B) (A) (B) (A) (B) (A) (B) (A)
                 (B) (B) (A) (A) (B) (B) (A) (A) (A) (B) (B) (A)
                 (B) (A) (A) (B) (B) (B) (A) (A) (B) (A) (B) (A)
                 (B) (A) (B) (A) (B) (A) (B) (A) (A) (B) (B) (A)
                 (B) (A) (B) (B) (A) (A) (B)
 Harris functional with IExCor=  205 diagonalized for initial guess.
 ExpMin= 1.61D-01 ExpMax= 5.48D+03 ExpMxC= 8.25D+02 IAcc=1 IRadAn=         1 AccDes= 0.00D+00
 HarFok:  IExCor=  205 AccDes= 0.00D+00 IRadAn=         1 IDoV= 1
 ScaDFX=  1.000000  1.000000  1.000000  1.000000
 FoFCou: FMM=F IPFlag=           0 FMFlag=      100000 FMFlg1=           0
         NFxFlg=           0 DoJE=T BraDBF=F KetDBF=T FulRan=T
         Omega=  0.000000  0.000000  1.000000  0.000000  0.000000 ICntrl=     500 IOpCl=  0
         NMat0=    1 NMatS0=    1 NMatT0=    0 NMatD0=    1 NMtDS0=    0 NMtDT0=    0
         I1Cent=           4 NGrid=           0.
 Petite list used in FoFCou.
 Requested convergence on RMS density matrix=1.00D-08 within 128 cycles.
 Requested convergence on MAX density matrix=1.00D-06.
 Requested convergence on             energy=1.00D-06.
 No special actions if energy rises.
 Keep R1 ints in memory in canonical form, NReq=4309302.
 SCF Done:  E(RHF) =  -228.909682337     A.U. after   10 cycles
             Convg  =    0.8864D-08             -V/T =  2.0015
 Calling FoFJK, ICntrl=      2127 FMM=F ISym2X=1 I1Cent= 0 IOpClX= 0 NMat=1 NMatS=1 NMatT=0.
 ***** Axes restored to original set *****
 -------------------------------------------------------------------
 Center     Atomic                   Forces (Hartrees/Bohr)
 Number     Number              X              Y              Z
 -------------------------------------------------------------------
      1        6           0.036281157    0.008711522    0.018333520
      2        6          -0.036281156   -0.008711522    0.018333523
      3        1          -0.000296745    0.000044073   -0.000681615
      4        1           0.000296745   -0.000044073   -0.000681615
      5        8          -0.014820338   -0.004088734   -0.012741015
      6        8           0.014820337    0.004088735   -0.012741016
      7        1           0.000946193    0.002310234   -0.013704535
      8        1          -0.010120062   -0.005683096    0.008793644
      9        1          -0.000946194   -0.002310233   -0.013704534
     10        1           0.010120063    0.005683096    0.008793643
 -------------------------------------------------------------------
 Cartesian Forces:  Max     0.036281157 RMS     0.012996582

 GradGradGradGradGradGradGradGradGradGradGradGradGradGradGradGradGradGrad
 Berny optimization.
 Using GEDIIS/GDIIS optimizer.
 Internal  Forces:  Max     0.019541515 RMS     0.006522088
 Search for a local minimum.
 Step number   2 out of a maximum of   48
 All quantities printed in internal units (Hartrees-Bohrs-Radians)
 Mixed Optimization -- RFO/linear search
 Update second derivatives using D2CorX and points    1    2
 DE= -8.49D-03 DEPred=-8.98D-03 R= 9.45D-01
 SS=  1.41D+00  RLast= 3.00D-01 DXNew= 5.0454D-01 8.9995D-01
 Trust test= 9.45D-01 RLast= 3.00D-01 DXMaxT set to 5.05D-01
 Use linear search instead of GDIIS.
 Linear search step of   0.592 exceeds DXMaxT=   0.505 but not scaled.
 Quartic linear search produced a step of  2.00000.
 Iteration  1 RMS(Cart)=  0.06738084 RMS(Int)=  0.01442302
 Iteration  2 RMS(Cart)=  0.01132708 RMS(Int)=  0.00167053
 Iteration  3 RMS(Cart)=  0.00011692 RMS(Int)=  0.00166630
 Iteration  4 RMS(Cart)=  0.00000003 RMS(Int)=  0.00166630
 Iteration  1 RMS(Cart)=  0.00003863 RMS(Int)=  0.00004027
 Iteration  2 RMS(Cart)=  0.00002437 RMS(Int)=  0.00004471
 Iteration  3 RMS(Cart)=  0.00001537 RMS(Int)=  0.00005125
 Iteration  4 RMS(Cart)=  0.00000970 RMS(Int)=  0.00005636
 Iteration  5 RMS(Cart)=  0.00000612 RMS(Int)=  0.00005987
 Iteration  6 RMS(Cart)=  0.00000386 RMS(Int)=  0.00006219
 Iteration  7 RMS(Cart)=  0.00000244 RMS(Int)=  0.00006368
 Iteration  8 RMS(Cart)=  0.00000154 RMS(Int)=  0.00006463
 Iteration  9 RMS(Cart)=  0.00000097 RMS(Int)=  0.00006524
 ClnCor:  largest displacement from symmetrization is 4.52D-10 for atom     4.
 Variable       Old X    -DE/DX   Delta X   Delta X   Delta X     New X
                                 (Linear)    (Quad)   (Total)
    R1        2.86032  -0.00309  -0.01500   0.00000  -0.01500   2.84532
    R2        2.65283   0.00126   0.01529   0.00000   0.01529   2.66812
    R3        2.05331  -0.00191  -0.00845   0.00000  -0.00845   2.04487
    R4        2.06207   0.00117   0.00745   0.00000   0.00745   2.06952
    R5        2.65283   0.00126   0.01529   0.00000   0.01529   2.66812
    R6        2.05331  -0.00191  -0.00845   0.00000  -0.00845   2.04487
    R7        2.06207   0.00117   0.00745   0.00000   0.00745   2.06952
    R8        1.78855   0.00013   0.00025   0.00000   0.00025   1.78880
    R9        1.78855   0.00013   0.00025   0.00000   0.00025   1.78880
    A1        1.91223   0.00114  -0.00102   0.00000  -0.00386   1.90837
    A2        1.93777   0.00074  -0.00575   0.00000  -0.00905   1.92872
    A3        1.83755  -0.00011  -0.00812   0.00000  -0.00992   1.82763
    A4        2.07155  -0.01199  -0.08113   0.00000  -0.08224   1.98932
    A5        1.80341   0.01282   0.11797   0.00000   0.11858   1.92198
    A6        1.88206  -0.00053  -0.00325   0.00000  -0.00127   1.88078
    A7        1.91223   0.00114  -0.00102   0.00000  -0.00386   1.90837
    A8        1.93777   0.00074  -0.00575   0.00000  -0.00905   1.92872
    A9        1.83755  -0.00011  -0.00812   0.00000  -0.00992   1.82763
   A10        2.07155  -0.01199  -0.08113   0.00000  -0.08224   1.98932
   A11        1.80341   0.01282   0.11797   0.00000   0.11858   1.92198
   A12        1.88206  -0.00053  -0.00325   0.00000  -0.00127   1.88078
   A13        1.91095   0.00067   0.00825   0.00000   0.00825   1.91919
   A14        1.91095   0.00067   0.00825   0.00000   0.00825   1.91919
    D1       -1.35018   0.01954   0.00001   0.00000  -0.00001  -1.35019
    D2        0.97171   0.00478  -0.11869   0.00000  -0.11862   0.85309
    D3        3.00387   0.00446  -0.13005   0.00000  -0.12999   2.87388
    D4        0.97171   0.00478  -0.11869   0.00000  -0.11862   0.85309
    D5       -2.98959  -0.00997  -0.23739   0.00000  -0.23723   3.05637
    D6       -0.95743  -0.01030  -0.24874   0.00000  -0.24860  -1.20602
    D7        3.00387   0.00446  -0.13005   0.00000  -0.12999   2.87388
    D8       -0.95743  -0.01030  -0.24874   0.00000  -0.24860  -1.20602
    D9        1.07474  -0.01062  -0.26010   0.00000  -0.25997   0.81477
   D10       -3.11068  -0.00536  -0.05177   0.00000  -0.05111   3.12139
   D11        0.92202   0.00322   0.03502   0.00000   0.03119   0.95321
   D12       -1.15907   0.00109  -0.00681   0.00000  -0.00364  -1.16271
   D13       -3.11068  -0.00536  -0.05177   0.00000  -0.05111   3.12139
   D14        0.92202   0.00322   0.03502   0.00000   0.03119   0.95321
   D15       -1.15907   0.00109  -0.00681   0.00000  -0.00364  -1.16271
         Item               Value     Threshold  Converged?
 Maximum Force            0.009936     0.000450     NO 
 RMS     Force            0.003970     0.000300     NO 
 Maximum Displacement     0.187814     0.001800     NO 
 RMS     Displacement     0.077457     0.001200     NO 
 Predicted change in Energy=-7.523853D-03
 GradGradGradGradGradGradGradGradGradGradGradGradGradGradGradGradGradGrad

                          Input orientation:                          
 ---------------------------------------------------------------------
 Center     Atomic      Atomic             Coordinates (Angstroms)
 Number     Number       Type             X           Y           Z
 ---------------------------------------------------------------------
      1          6           0       -0.260186    0.706448    0.525751
      2          6           0        0.260186   -0.706448    0.525751
      3          1           0        0.025301    2.318437   -0.533521
      4          1           0       -0.025301   -2.318437   -0.533521
      5          8           0        0.359493    1.433009   -0.514246
      6          8           0       -0.359493   -1.433009   -0.514246
      7          1           0       -1.341406    0.712213    0.482576
      8          1           0        0.037483    1.112533    1.498285
      9          1           0        1.341406   -0.712213    0.482576
     10          1           0       -0.037482   -1.112533    1.498285
 ---------------------------------------------------------------------
                    Distance matrix (angstroms):
                    1          2          3          4          5
     1  C    0.000000
     2  C    1.505676   0.000000
     3  H    1.949890   3.213589   0.000000
     4  H    3.213589   1.949890   4.637149   0.000000
     5  O    1.411909   2.380910   0.946593   3.771178   0.000000
     6  O    2.380910   1.411909   3.771178   0.946593   2.954827
     7  H    1.082097   2.139990   2.341004   3.456793   2.099109
     8  H    1.095141   2.074635   2.362751   3.987948   2.063172
     9  H    2.139990   1.082097   3.456793   2.341004   2.561207
    10  H    2.074635   1.095141   3.987948   2.362751   3.269198
                    6          7          8          9         10
     6  O    0.000000
     7  H    2.561207   0.000000
     8  H    3.269198   1.758765   0.000000
     9  H    2.099109   3.037510   2.462027   0.000000
    10  H    2.063172   2.462027   2.226328   1.758765   0.000000
 Stoichiometry    C2H6O2
 Framework group  C2[X(C2H6O2)]
 Deg. of freedom    13
 Full point group                 C2      NOp   2
 Largest Abelian subgroup         C2      NOp   2
 Largest concise Abelian subgroup C2      NOp   2
                         Standard orientation:                         
 ---------------------------------------------------------------------
 Center     Atomic      Atomic             Coordinates (Angstroms)
 Number     Number       Type             X           Y           Z
 ---------------------------------------------------------------------
      1          6           0       -0.292662    0.693624    0.497052
      2          6           0        0.292662   -0.693624    0.497052
      3          1           0       -0.082225    2.317116   -0.562220
      4          1           0        0.082225   -2.317116   -0.562220
      5          8           0        0.292662    1.448136   -0.542945
      6          8           0       -0.292662   -1.448136   -0.542945
      7          1           0       -1.372986    0.649250    0.453877
      8          1           0       -0.014143    1.113074    1.469586
      9          1           0        1.372986   -0.649250    0.453877
     10          1           0        0.014143   -1.113074    1.469586
 ---------------------------------------------------------------------
 Rotational constants (GHZ):     17.5706860      4.9834788      4.4353088
 Standard basis: 6-31G(d) (6D, 7F)
 There are    36 symmetry adapted basis functions of A   symmetry.
 There are    36 symmetry adapted basis functions of B   symmetry.
 Integral buffers will be    131072 words long.
 Raffenetti 1 integral format.
 Two-electron integral symmetry is turned on.
    72 basis functions,   136 primitive gaussians,    72 cartesian basis functions
    17 alpha electrons       17 beta electrons
       nuclear repulsion energy       132.6108662488 Hartrees.
 NAtoms=   10 NActive=   10 NUniq=    5 SFac= 3.00D+00 NAtFMM=   80 NAOKFM=F Big=F
 One-electron integrals computed using PRISM.
 NBasis=    72 RedAO= T  NBF=    36    36
 NBsUse=    72 1.00D-06 NBFU=    36    36
 Initial guess read from the read-write file.
 B after Tr=     0.000000    0.000000    0.000000
         Rot=    1.000000    0.000000    0.000000    0.000000 Ang=   0.00 deg.
 Initial guess orbital symmetries:
       Occupied  (B) (A) (A) (B) (A) (B) (A) (B) (A) (B) (B) (A)
                 (A) (B) (A) (A) (B)
       Virtual   (A) (B) (A) (B) (B) (A) (B) (A) (B) (A) (B) (A)
                 (B) (B) (A) (A) (B) (B) (A) (A) (A) (B) (B) (A)
                 (B) (A) (A) (B) (B) (B) (A) (A) (B) (A) (B) (A)
                 (B) (A) (B) (A) (B) (A) (B) (A) (A) (B) (B) (A)
                 (B) (A) (B) (B) (A) (A) (B)
 Harris functional with IExCor=  205 diagonalized for initial guess.
 ExpMin= 1.61D-01 ExpMax= 5.48D+03 ExpMxC= 8.25D+02 IAcc=1 IRadAn=         1 AccDes= 0.00D+00
 HarFok:  IExCor=  205 AccDes= 0.00D+00 IRadAn=         1 IDoV= 1
 ScaDFX=  1.000000  1.000000  1.000000  1.000000
 FoFCou: FMM=F IPFlag=           0 FMFlag=      100000 FMFlg1=           0
         NFxFlg=           0 DoJE=T BraDBF=F KetDBF=T FulRan=T
         Omega=  0.000000  0.000000  1.000000  0.000000  0.000000 ICntrl=     500 IOpCl=  0
         NMat0=    1 NMatS0=    1 NMatT0=    0 NMatD0=    1 NMtDS0=    0 NMtDT0=    0
         I1Cent=           4 NGrid=           0.
 Petite list used in FoFCou.
 Requested convergence on RMS density matrix=1.00D-08 within 128 cycles.
 Requested convergence on MAX density matrix=1.00D-06.
 Requested convergence on             energy=1.00D-06.
 No special actions if energy rises.
 Keep R1 ints in memory in canonical form, NReq=4309302.
 SCF Done:  E(RHF) =  -228.917434769     A.U. after   11 cycles
             Convg  =    0.4815D-08             -V/T =  2.0017
 Calling FoFJK, ICntrl=      2127 FMM=F ISym2X=1 I1Cent= 0 IOpClX= 0 NMat=1 NMatS=1 NMatT=0.
 ***** Axes restored to original set *****
 -------------------------------------------------------------------
 Center     Atomic                   Forces (Hartrees/Bohr)
 Number     Number              X              Y              Z
 -------------------------------------------------------------------
      1        6           0.021278447    0.008074330    0.004710816
      2        6          -0.021278446   -0.008074330    0.004710818
      3        1          -0.000878321   -0.000285373    0.000233431
      4        1           0.000878321    0.000285373    0.000233431
      5        8          -0.008199674   -0.004700111    0.004419231
      6        8           0.008199674    0.004700111    0.004419231
      7        1          -0.001559000   -0.000124456   -0.005541839
      8        1          -0.003249808    0.004014512   -0.003821640
      9        1           0.001559000    0.000124456   -0.005541839
     10        1           0.003249808   -0.004014512   -0.003821641
 -------------------------------------------------------------------
 Cartesian Forces:  Max     0.021278447 RMS     0.006949158

 GradGradGradGradGradGradGradGradGradGradGradGradGradGradGradGradGradGrad
 Berny optimization.
 Using GEDIIS/GDIIS optimizer.
 Internal  Forces:  Max     0.009976889 RMS     0.003923887
 Search for a local minimum.
 Step number   3 out of a maximum of   48
 All quantities printed in internal units (Hartrees-Bohrs-Radians)
 Mixed Optimization -- RFO/linear search
 Update second derivatives using D2CorX and points    2    3
 Use linear search instead of GDIIS.
     Eigenvalues ---    0.01692   0.01695   0.02262   0.05207   0.06435
     Eigenvalues ---    0.06501   0.11091   0.11446   0.13774   0.14457
     Eigenvalues ---    0.16000   0.16055   0.22029   0.22038   0.30781
     Eigenvalues ---    0.34902   0.34924   0.34951   0.35073   0.45659
     Eigenvalues ---    0.46764   0.58505   0.585051000.000001000.00000
     Eigenvalues --- 1000.000001000.000001000.000001000.000001000.00000
     Eigenvalues --- 1000.000001000.000001000.000001000.000001000.00000
     Eigenvalues --- 1000.000001000.000001000.00000
 RFO step:  Lambda=-4.10900894D-03 EMin= 1.69206773D-02
 Quartic linear search produced a step of  0.15459.
 Iteration  1 RMS(Cart)=  0.04909823 RMS(Int)=  0.00236049
 Iteration  2 RMS(Cart)=  0.00212078 RMS(Int)=  0.00062637
 Iteration  3 RMS(Cart)=  0.00000322 RMS(Int)=  0.00062636
 Iteration  4 RMS(Cart)=  0.00000000 RMS(Int)=  0.00062636
 Iteration  1 RMS(Cart)=  0.00004654 RMS(Int)=  0.00005007
 Iteration  2 RMS(Cart)=  0.00002927 RMS(Int)=  0.00005561
 Iteration  3 RMS(Cart)=  0.00001841 RMS(Int)=  0.00006371
 Iteration  4 RMS(Cart)=  0.00001157 RMS(Int)=  0.00007003
 Iteration  5 RMS(Cart)=  0.00000728 RMS(Int)=  0.00007436
 Iteration  6 RMS(Cart)=  0.00000458 RMS(Int)=  0.00007720
 Iteration  7 RMS(Cart)=  0.00000288 RMS(Int)=  0.00007903
 Iteration  8 RMS(Cart)=  0.00000181 RMS(Int)=  0.00008019
 Iteration  9 RMS(Cart)=  0.00000114 RMS(Int)=  0.00008093
 Iteration 10 RMS(Cart)=  0.00000072 RMS(Int)=  0.00008139
 ClnCor:  largest displacement from symmetrization is 3.37D-10 for atom     9.
 Variable       Old X    -DE/DX   Delta X   Delta X   Delta X     New X
                                 (Linear)    (Quad)   (Total)
    R1        2.84532   0.00399  -0.00232   0.01513   0.01281   2.85813
    R2        2.66812  -0.00998   0.00236  -0.02409  -0.02173   2.64639
    R3        2.04487   0.00178  -0.00131   0.00601   0.00470   2.04957
    R4        2.06952  -0.00279   0.00115  -0.00900  -0.00785   2.06167
    R5        2.66812  -0.00998   0.00236  -0.02409  -0.02173   2.64639
    R6        2.04487   0.00178  -0.00131   0.00601   0.00470   2.04957
    R7        2.06952  -0.00279   0.00115  -0.00900  -0.00785   2.06167
    R8        1.78880   0.00004   0.00004   0.00005   0.00009   1.78889
    R9        1.78880   0.00004   0.00004   0.00005   0.00009   1.78889
    A1        1.90837   0.00202  -0.00060   0.00645   0.00448   1.91285
    A2        1.92872  -0.00272  -0.00140  -0.02380  -0.02618   1.90254
    A3        1.82763   0.00734  -0.00153   0.07635   0.07415   1.90178
    A4        1.98932  -0.00399  -0.01271  -0.04004  -0.05355   1.93576
    A5        1.92198  -0.00170   0.01833  -0.01967  -0.00278   1.91920
    A6        1.88078  -0.00005  -0.00020   0.01044   0.01044   1.89122
    A7        1.90837   0.00202  -0.00060   0.00645   0.00448   1.91285
    A8        1.92872  -0.00272  -0.00140  -0.02380  -0.02618   1.90254
    A9        1.82763   0.00734  -0.00153   0.07635   0.07415   1.90178
   A10        1.98932  -0.00399  -0.01271  -0.04004  -0.05355   1.93576
   A11        1.92198  -0.00170   0.01833  -0.01967  -0.00278   1.91920
   A12        1.88078  -0.00005  -0.00020   0.01044   0.01044   1.89122
   A13        1.91919  -0.00137   0.00127  -0.00954  -0.00827   1.91093
   A14        1.91919  -0.00137   0.00127  -0.00954  -0.00827   1.91093
    D1       -1.35019   0.00594   0.00000   0.00000   0.00001  -1.35018
    D2        0.85309   0.00036  -0.01834  -0.06356  -0.08168   0.77141
    D3        2.87388   0.00300  -0.02009  -0.02121  -0.04168   2.83220
    D4        0.85309   0.00036  -0.01834  -0.06356  -0.08168   0.77141
    D5        3.05637  -0.00522  -0.03667  -0.12711  -0.16337   2.89299
    D6       -1.20602  -0.00258  -0.03843  -0.08476  -0.12337  -1.32940
    D7        2.87388   0.00300  -0.02009  -0.02121  -0.04168   2.83220
    D8       -1.20602  -0.00258  -0.03843  -0.08476  -0.12337  -1.32940
    D9        0.81477   0.00006  -0.04019  -0.04242  -0.08337   0.73140
   D10        3.12139  -0.00495  -0.00790  -0.06178  -0.06900   3.05240
   D11        0.95321  -0.00006   0.00482  -0.00640  -0.00231   0.95091
   D12       -1.16271   0.00405  -0.00056   0.02261   0.02209  -1.14062
   D13        3.12139  -0.00495  -0.00790  -0.06178  -0.06900   3.05240
   D14        0.95321  -0.00006   0.00482  -0.00640  -0.00231   0.95091
   D15       -1.16271   0.00405  -0.00056   0.02261   0.02209  -1.14062
         Item               Value     Threshold  Converged?
 Maximum Force            0.009977     0.000450     NO 
 RMS     Force            0.003637     0.000300     NO 
 Maximum Displacement     0.119857     0.001800     NO 
 RMS     Displacement     0.049327     0.001200     NO 
 Predicted change in Energy=-2.297480D-03
 GradGradGradGradGradGradGradGradGradGradGradGradGradGradGradGradGradGrad

                          Input orientation:                          
 ---------------------------------------------------------------------
 Center     Atomic      Atomic             Coordinates (Angstroms)
 Number     Number       Type             X           Y           Z
 ---------------------------------------------------------------------
      1          6           0       -0.245061    0.715420    0.546285
      2          6           0        0.245061   -0.715420    0.546285
      3          1           0        0.017974    2.299146   -0.532805
      4          1           0       -0.017975   -2.299146   -0.532805
      5          8           0        0.382736    1.426988   -0.483615
      6          8           0       -0.382736   -1.426988   -0.483615
      7          1           0       -1.322160    0.719855    0.419151
      8          1           0       -0.010900    1.170394    1.509830
      9          1           0        1.322160   -0.719855    0.419150
     10          1           0        0.010900   -1.170394    1.509830
 ---------------------------------------------------------------------
                    Distance matrix (angstroms):
                    1          2          3          4          5
     1  C    0.000000
     2  C    1.512455   0.000000
     3  H    1.934377   3.209924   0.000000
     4  H    3.209924   1.934377   4.598433   0.000000
     5  O    1.400412   2.381084   0.946642   3.747941   0.000000
     6  O    2.381084   1.400412   3.747941   0.946642   2.954848
     7  H    1.084585   2.128934   2.279549   3.423666   2.054676
     8  H    1.090987   2.133126   2.333940   4.026179   2.048076
     9  H    2.128934   1.084585   3.423666   2.279549   2.511262
    10  H    2.133126   1.090987   4.026179   2.333940   3.295220
                    6          7          8          9         10
     6  O    0.000000
     7  H    2.511262   0.000000
     8  H    3.295220   1.764078   0.000000
     9  H    2.054676   3.010846   2.557278   0.000000
    10  H    2.048076   2.557278   2.340889   1.764078   0.000000
 Stoichiometry    C2H6O2
 Framework group  C2[X(C2H6O2)]
 Deg. of freedom    13
 Full point group                 C2      NOp   2
 Largest Abelian subgroup         C2      NOp   2
 Largest concise Abelian subgroup C2      NOp   2
                         Standard orientation:                         
 ---------------------------------------------------------------------
 Center     Atomic      Atomic             Coordinates (Angstroms)
 Number     Number       Type             X           Y           Z
 ---------------------------------------------------------------------
      1          6           0       -0.290436    0.698231    0.498934
      2          6           0        0.290436   -0.698231    0.498934
      3          1           0       -0.129505    2.295566   -0.580156
      4          1           0        0.129505   -2.295566   -0.580156
      5          8           0        0.290436    1.448595   -0.530966
      6          8           0       -0.290436   -1.448595   -0.530966
      7          1           0       -1.365603    0.633584    0.371799
      8          1           0       -0.085934    1.167286    1.462479
      9          1           0        1.365603   -0.633584    0.371799
     10          1           0        0.085934   -1.167286    1.462479
 ---------------------------------------------------------------------
 Rotational constants (GHZ):     17.8819582      4.9772972      4.4488021
 Standard basis: 6-31G(d) (6D, 7F)
 There are    36 symmetry adapted basis functions of A   symmetry.
 There are    36 symmetry adapted basis functions of B   symmetry.
 Integral buffers will be    131072 words long.
 Raffenetti 1 integral format.
 Two-electron integral symmetry is turned on.
    72 basis functions,   136 primitive gaussians,    72 cartesian basis functions
    17 alpha electrons       17 beta electrons
       nuclear repulsion energy       132.9838323524 Hartrees.
 NAtoms=   10 NActive=   10 NUniq=    5 SFac= 3.00D+00 NAtFMM=   80 NAOKFM=F Big=F
 One-electron integrals computed using PRISM.
 NBasis=    72 RedAO= T  NBF=    36    36
 NBsUse=    72 1.00D-06 NBFU=    36    36
 Initial guess read from the read-write file.
 B after Tr=     0.000000    0.000000    0.000000
         Rot=    1.000000    0.000000    0.000000    0.000000 Ang=   0.00 deg.
 Initial guess orbital symmetries:
       Occupied  (B) (A) (A) (B) (A) (B) (A) (B) (A) (B) (B) (A)
                 (A) (B) (A) (A) (B)
       Virtual   (A) (B) (A) (B) (A) (B) (B) (B) (A) (A) (B) (A)
                 (B) (A) (B) (A) (B) (B) (A) (A) (B) (A) (B) (A)
                 (B) (A) (B) (A) (B) (B) (A) (A) (B) (A) (B) (A)
                 (B) (A) (B) (B) (A) (A) (B) (A) (A) (B) (B) (A)
                 (B) (A) (B) (B) (A) (A) (B)
 Harris functional with IExCor=  205 diagonalized for initial guess.
 ExpMin= 1.61D-01 ExpMax= 5.48D+03 ExpMxC= 8.25D+02 IAcc=1 IRadAn=         1 AccDes= 0.00D+00
 HarFok:  IExCor=  205 AccDes= 0.00D+00 IRadAn=         1 IDoV= 1
 ScaDFX=  1.000000  1.000000  1.000000  1.000000
 FoFCou: FMM=F IPFlag=           0 FMFlag=      100000 FMFlg1=           0
         NFxFlg=           0 DoJE=T BraDBF=F KetDBF=T FulRan=T
         Omega=  0.000000  0.000000  1.000000  0.000000  0.000000 ICntrl=     500 IOpCl=  0
         NMat0=    1 NMatS0=    1 NMatT0=    0 NMatD0=    1 NMtDS0=    0 NMtDT0=    0
         I1Cent=           4 NGrid=           0.
 Petite list used in FoFCou.
 Requested convergence on RMS density matrix=1.00D-08 within 128 cycles.
 Requested convergence on MAX density matrix=1.00D-06.
 Requested convergence on             energy=1.00D-06.
 No special actions if energy rises.
 Keep R1 ints in memory in canonical form, NReq=4309302.
 SCF Done:  E(RHF) =  -228.919358193     A.U. after   11 cycles
             Convg  =    0.3187D-08             -V/T =  2.0015
 Calling FoFJK, ICntrl=      2127 FMM=F ISym2X=1 I1Cent= 0 IOpClX= 0 NMat=1 NMatS=1 NMatT=0.
 ***** Axes restored to original set *****
 -------------------------------------------------------------------
 Center     Atomic                   Forces (Hartrees/Bohr)
 Number     Number              X              Y              Z
 -------------------------------------------------------------------
      1        6           0.001257502    0.002316899    0.001711258
      2        6          -0.001257502   -0.002316899    0.001711259
      3        1          -0.000157123   -0.000526537   -0.000374997
      4        1           0.000157123    0.000526537   -0.000374997
      5        8           0.001196453   -0.001035878   -0.001875537
      6        8          -0.001196453    0.001035878   -0.001875537
      7        1          -0.001531861   -0.001015442    0.000923033
      8        1          -0.000643809   -0.001892407   -0.000383758
      9        1           0.001531861    0.001015442    0.000923033
     10        1           0.000643809    0.001892407   -0.000383758
 -------------------------------------------------------------------
 Cartesian Forces:  Max     0.002316899 RMS     0.001283619

 GradGradGradGradGradGradGradGradGradGradGradGradGradGradGradGradGradGrad
 Berny optimization.
 Using GEDIIS/GDIIS optimizer.
 Internal  Forces:  Max     0.003609593 RMS     0.001356489
 Search for a local minimum.
 Step number   4 out of a maximum of   48
 All quantities printed in internal units (Hartrees-Bohrs-Radians)
 Mixed Optimization -- RFO/linear search
 Update second derivatives using D2CorX and points    3    4
 DE= -1.92D-03 DEPred=-2.30D-03 R= 8.37D-01
 SS=  1.41D+00  RLast= 3.33D-01 DXNew= 8.4853D-01 1.0004D+00
 Trust test= 8.37D-01 RLast= 3.33D-01 DXMaxT set to 8.49D-01
 Use linear search instead of GDIIS.
     Eigenvalues ---    0.01657   0.01695   0.02336   0.05316   0.06113
     Eigenvalues ---    0.06319   0.11298   0.12194   0.13779   0.14516
     Eigenvalues ---    0.16000   0.16058   0.22039   0.23748   0.31293
     Eigenvalues ---    0.34624   0.34902   0.34940   0.34951   0.45659
     Eigenvalues ---    0.47696   0.58505   0.585191000.000001000.00000
     Eigenvalues --- 1000.000001000.000001000.000001000.000001000.00000
     Eigenvalues --- 1000.000001000.000001000.000001000.000001000.00000
     Eigenvalues --- 1000.000001000.000001000.00000
 RFO step:  Lambda=-2.63698803D-04 EMin= 1.65726647D-02
 Quartic linear search produced a step of -0.09308.
 Iteration  1 RMS(Cart)=  0.01702796 RMS(Int)=  0.00014728
 Iteration  2 RMS(Cart)=  0.00015140 RMS(Int)=  0.00005763
 Iteration  3 RMS(Cart)=  0.00000001 RMS(Int)=  0.00005763
 Iteration  1 RMS(Cart)=  0.00000885 RMS(Int)=  0.00000947
 Iteration  2 RMS(Cart)=  0.00000558 RMS(Int)=  0.00001051
 Iteration  3 RMS(Cart)=  0.00000352 RMS(Int)=  0.00001205
 Iteration  4 RMS(Cart)=  0.00000222 RMS(Int)=  0.00001325
 Iteration  5 RMS(Cart)=  0.00000140 RMS(Int)=  0.00001407
 Iteration  6 RMS(Cart)=  0.00000088 RMS(Int)=  0.00001462
 ClnCor:  largest displacement from symmetrization is 2.03D-12 for atom     9.
 Variable       Old X    -DE/DX   Delta X   Delta X   Delta X     New X
                                 (Linear)    (Quad)   (Total)
    R1        2.85813  -0.00208  -0.00119  -0.00381  -0.00500   2.85313
    R2        2.64639   0.00133   0.00202  -0.00108   0.00095   2.64734
    R3        2.04957   0.00141  -0.00044   0.00451   0.00407   2.05364
    R4        2.06167  -0.00127   0.00073  -0.00466  -0.00393   2.05774
    R5        2.64639   0.00133   0.00202  -0.00108   0.00095   2.64734
    R6        2.04957   0.00141  -0.00044   0.00451   0.00407   2.05364
    R7        2.06167  -0.00127   0.00073  -0.00466  -0.00393   2.05774
    R8        1.78889  -0.00041  -0.00001  -0.00061  -0.00062   1.78827
    R9        1.78889  -0.00041  -0.00001  -0.00061  -0.00062   1.78827
    A1        1.91285  -0.00361  -0.00042  -0.01398  -0.01429   1.89856
    A2        1.90254  -0.00027   0.00244  -0.00959  -0.00708   1.89545
    A3        1.90178  -0.00012  -0.00690   0.00631  -0.00052   1.90126
    A4        1.93576   0.00172   0.00498   0.00568   0.01062   1.94639
    A5        1.91920   0.00252   0.00026   0.01096   0.01134   1.93054
    A6        1.89122  -0.00024  -0.00097   0.00069  -0.00034   1.89088
    A7        1.91285  -0.00361  -0.00042  -0.01398  -0.01429   1.89856
    A8        1.90254  -0.00027   0.00244  -0.00959  -0.00708   1.89545
    A9        1.90178  -0.00012  -0.00690   0.00631  -0.00052   1.90126
   A10        1.93576   0.00172   0.00498   0.00568   0.01062   1.94639
   A11        1.91920   0.00252   0.00026   0.01096   0.01134   1.93054
   A12        1.89122  -0.00024  -0.00097   0.00069  -0.00034   1.89088
   A13        1.91093   0.00014   0.00077  -0.00069   0.00008   1.91101
   A14        1.91093   0.00014   0.00077  -0.00069   0.00008   1.91101
    D1       -1.35018   0.00106   0.00000   0.00000  -0.00001  -1.35019
    D2        0.77141   0.00076   0.00760  -0.00775  -0.00015   0.77126
    D3        2.83220   0.00024   0.00388  -0.00879  -0.00489   2.82732
    D4        0.77141   0.00076   0.00760  -0.00775  -0.00015   0.77126
    D5        2.89299   0.00045   0.01521  -0.01550  -0.00029   2.89271
    D6       -1.32940  -0.00006   0.01148  -0.01654  -0.00503  -1.33442
    D7        2.83220   0.00024   0.00388  -0.00879  -0.00489   2.82732
    D8       -1.32940  -0.00006   0.01148  -0.01654  -0.00503  -1.33442
    D9        0.73140  -0.00058   0.00776  -0.01759  -0.00976   0.72163
   D10        3.05240  -0.00054   0.00642  -0.02607  -0.01972   3.03268
   D11        0.95091   0.00105   0.00021  -0.00863  -0.00828   0.94262
   D12       -1.14062  -0.00138  -0.00206  -0.02022  -0.02234  -1.16296
   D13        3.05240  -0.00054   0.00642  -0.02607  -0.01972   3.03268
   D14        0.95091   0.00105   0.00021  -0.00863  -0.00828   0.94262
   D15       -1.14062  -0.00138  -0.00206  -0.02022  -0.02234  -1.16296
         Item               Value     Threshold  Converged?
 Maximum Force            0.003610     0.000450     NO 
 RMS     Force            0.001345     0.000300     NO 
 Maximum Displacement     0.039733     0.001800     NO 
 RMS     Displacement     0.017098     0.001200     NO 
 Predicted change in Energy=-1.536607D-04
 GradGradGradGradGradGradGradGradGradGradGradGradGradGradGradGradGradGrad

                          Input orientation:                          
 ---------------------------------------------------------------------
 Center     Atomic      Atomic             Coordinates (Angstroms)
 Number     Number       Type             X           Y           Z
 ---------------------------------------------------------------------
      1          6           0       -0.245860    0.713747    0.552990
      2          6           0        0.245860   -0.713747    0.552990
      3          1           0        0.020843    2.278120   -0.553536
      4          1           0       -0.020843   -2.278120   -0.553536
      5          8           0        0.390989    1.410110   -0.482412
      6          8           0       -0.390989   -1.410110   -0.482412
      7          1           0       -1.325042    0.708650    0.425149
      8          1           0       -0.017135    1.166244    1.516655
      9          1           0        1.325042   -0.708650    0.425149
     10          1           0        0.017135   -1.166244    1.516655
 ---------------------------------------------------------------------
                    Distance matrix (angstroms):
                    1          2          3          4          5
     1  C    0.000000
     2  C    1.509811   0.000000
     3  H    1.934630   3.197859   0.000000
     4  H    3.197859   1.934630   4.556431   0.000000
     5  O    1.400912   2.367254   0.946313   3.711834   0.000000
     6  O    2.367254   1.400912   3.711834   0.946313   2.926625
     7  H    1.086740   2.123038   2.287459   3.402875   2.064092
     8  H    1.088907   2.128892   2.350193   4.018625   2.054825
     9  H    2.123038   1.086740   3.402875   2.287459   2.487019
    10  H    2.128892   1.088907   4.018625   2.350193   3.282322
                    6          7          8          9         10
     6  O    0.000000
     7  H    2.487019   0.000000
     8  H    3.282322   1.763916   0.000000
     9  H    2.064092   3.005276   2.551088   0.000000
    10  H    2.054825   2.551088   2.332739   1.763916   0.000000
 Stoichiometry    C2H6O2
 Framework group  C2[X(C2H6O2)]
 Deg. of freedom    13
 Full point group                 C2      NOp   2
 Largest Abelian subgroup         C2      NOp   2
 Largest concise Abelian subgroup C2      NOp   2
                         Standard orientation:                         
 ---------------------------------------------------------------------
 Center     Atomic      Atomic             Coordinates (Angstroms)
 Number     Number       Type             X           Y           Z
 ---------------------------------------------------------------------
      1          6           0       -0.293947    0.695326    0.503172
      2          6           0        0.293947   -0.695326    0.503172
      3          1           0       -0.134514    2.274241   -0.603355
      4          1           0        0.134514   -2.274241   -0.603355
      5          8           0        0.293947    1.433485   -0.532230
      6          8           0       -0.293947   -1.433485   -0.532230
      7          1           0       -1.370270    0.616668    0.375330
      8          1           0       -0.096602    1.162362    1.466837
      9          1           0        1.370270   -0.616668    0.375330
     10          1           0        0.096602   -1.162362    1.466837
 ---------------------------------------------------------------------
 Rotational constants (GHZ):     17.6485369      5.0572527      4.5087999
 Standard basis: 6-31G(d) (6D, 7F)
 There are    36 symmetry adapted basis functions of A   symmetry.
 There are    36 symmetry adapted basis functions of B   symmetry.
 Integral buffers will be    131072 words long.
 Raffenetti 1 integral format.
 Two-electron integral symmetry is turned on.
    72 basis functions,   136 primitive gaussians,    72 cartesian basis functions
    17 alpha electrons       17 beta electrons
       nuclear repulsion energy       133.2853924549 Hartrees.
 NAtoms=   10 NActive=   10 NUniq=    5 SFac= 3.00D+00 NAtFMM=   80 NAOKFM=F Big=F
 One-electron integrals computed using PRISM.
 NBasis=    72 RedAO= T  NBF=    36    36
 NBsUse=    72 1.00D-06 NBFU=    36    36
 Initial guess read from the read-write file.
 B after Tr=     0.000000    0.000000    0.000000
         Rot=    1.000000    0.000000    0.000000    0.000000 Ang=   0.00 deg.
 Initial guess orbital symmetries:
       Occupied  (B) (A) (A) (B) (A) (B) (A) (B) (A) (B) (B) (A)
                 (A) (B) (A) (A) (B)
       Virtual   (A) (B) (A) (B) (A) (B) (B) (B) (A) (A) (B) (A)
                 (B) (A) (B) (A) (B) (B) (A) (A) (B) (A) (A) (B)
                 (B) (A) (B) (A) (B) (B) (A) (A) (B) (B) (A) (B)
                 (A) (A) (B) (B) (A) (A) (A) (B) (A) (B) (B) (A)
                 (B) (A) (B) (B) (A) (A) (B)
 Harris functional with IExCor=  205 diagonalized for initial guess.
 ExpMin= 1.61D-01 ExpMax= 5.48D+03 ExpMxC= 8.25D+02 IAcc=1 IRadAn=         1 AccDes= 0.00D+00
 HarFok:  IExCor=  205 AccDes= 0.00D+00 IRadAn=         1 IDoV= 1
 ScaDFX=  1.000000  1.000000  1.000000  1.000000
 FoFCou: FMM=F IPFlag=           0 FMFlag=      100000 FMFlg1=           0
         NFxFlg=           0 DoJE=T BraDBF=F KetDBF=T FulRan=T
         Omega=  0.000000  0.000000  1.000000  0.000000  0.000000 ICntrl=     500 IOpCl=  0
         NMat0=    1 NMatS0=    1 NMatT0=    0 NMatD0=    1 NMtDS0=    0 NMtDT0=    0
         I1Cent=           4 NGrid=           0.
 Petite list used in FoFCou.
 Requested convergence on RMS density matrix=1.00D-08 within 128 cycles.
 Requested convergence on MAX density matrix=1.00D-06.
 Requested convergence on             energy=1.00D-06.
 No special actions if energy rises.
 Keep R1 ints in memory in canonical form, NReq=4309302.
 SCF Done:  E(RHF) =  -228.919507245     A.U. after   10 cycles
             Convg  =    0.3805D-08             -V/T =  2.0015
 Calling FoFJK, ICntrl=      2127 FMM=F ISym2X=1 I1Cent= 0 IOpClX= 0 NMat=1 NMatS=1 NMatT=0.
 ***** Axes restored to original set *****
 -------------------------------------------------------------------
 Center     Atomic                   Forces (Hartrees/Bohr)
 Number     Number              X              Y              Z
 -------------------------------------------------------------------
      1        6           0.000692628    0.000415397    0.000577707
      2        6          -0.000692628   -0.000415397    0.000577708
      3        1          -0.000146458    0.000059951   -0.000598423
      4        1           0.000146458   -0.000059951   -0.000598423
      5        8          -0.000598786    0.000344704   -0.000256083
      6        8           0.000598786   -0.000344704   -0.000256083
      7        1           0.000134948    0.000376537    0.000219671
      8        1           0.000103077    0.000161700    0.000057128
      9        1          -0.000134948   -0.000376537    0.000219671
     10        1          -0.000103077   -0.000161700    0.000057128
 -------------------------------------------------------------------
 Cartesian Forces:  Max     0.000692628 RMS     0.000379510

 GradGradGradGradGradGradGradGradGradGradGradGradGradGradGradGradGradGrad
 Berny optimization.
 Using GEDIIS/GDIIS optimizer.
 Internal  Forces:  Max     0.001223851 RMS     0.000416274
 Search for a local minimum.
 Step number   5 out of a maximum of   48
 All quantities printed in internal units (Hartrees-Bohrs-Radians)
 Mixed Optimization -- En-DIIS/RFO-DIIS
 Update second derivatives using D2CorX and points    3    4    5
 DE= -1.49D-04 DEPred=-1.54D-04 R= 9.70D-01
 SS=  1.41D+00  RLast= 5.65D-02 DXNew= 1.4270D+00 1.6945D-01
 Trust test= 9.70D-01 RLast= 5.65D-02 DXMaxT set to 8.49D-01
 Use linear search instead of GDIIS.
     Eigenvalues ---    0.01344   0.01695   0.02472   0.05409   0.06170
     Eigenvalues ---    0.06344   0.11157   0.12739   0.13712   0.14448
     Eigenvalues ---    0.16000   0.16124   0.22026   0.24270   0.33299
     Eigenvalues ---    0.34902   0.34916   0.34951   0.37205   0.45659
     Eigenvalues ---    0.47167   0.58505   0.586551000.000001000.00000
     Eigenvalues --- 1000.000001000.000001000.000001000.000001000.00000
     Eigenvalues --- 1000.000001000.000001000.000001000.000001000.00000
     Eigenvalues --- 1000.000001000.000001000.00000
 RFO step:  Lambda=-3.90105245D-05 EMin= 1.34387847D-02
 Quartic linear search produced a step of -0.02473.
 Iteration  1 RMS(Cart)=  0.00630721 RMS(Int)=  0.00005493
 Iteration  2 RMS(Cart)=  0.00005247 RMS(Int)=  0.00000106
 Iteration  3 RMS(Cart)=  0.00000000 RMS(Int)=  0.00000106
 Iteration  1 RMS(Cart)=  0.00000043 RMS(Int)=  0.00000046
 ClnCor:  largest displacement from symmetrization is 5.58D-11 for atom     9.
 Variable       Old X    -DE/DX   Delta X   Delta X   Delta X     New X
                                 (Linear)    (Quad)   (Total)
    R1        2.85313   0.00122   0.00012   0.00307   0.00320   2.85633
    R2        2.64734   0.00049  -0.00002   0.00114   0.00111   2.64845
    R3        2.05364  -0.00016  -0.00010   0.00023   0.00013   2.05377
    R4        2.05774   0.00014   0.00010  -0.00028  -0.00018   2.05756
    R5        2.64734   0.00049  -0.00002   0.00114   0.00111   2.64845
    R6        2.05364  -0.00016  -0.00010   0.00023   0.00013   2.05377
    R7        2.05774   0.00014   0.00010  -0.00028  -0.00018   2.05756
    R8        1.78827   0.00016   0.00002   0.00016   0.00017   1.78845
    R9        1.78827   0.00016   0.00002   0.00016   0.00017   1.78845
    A1        1.89856   0.00027   0.00035  -0.00085  -0.00050   1.89806
    A2        1.89545   0.00009   0.00018   0.00071   0.00088   1.89633
    A3        1.90126   0.00016   0.00001   0.00083   0.00084   1.90210
    A4        1.94639  -0.00057  -0.00026   0.00077   0.00051   1.94690
    A5        1.93054   0.00018  -0.00028   0.00018  -0.00010   1.93044
    A6        1.89088  -0.00013   0.00001  -0.00160  -0.00159   1.88929
    A7        1.89856   0.00027   0.00035  -0.00085  -0.00050   1.89806
    A8        1.89545   0.00009   0.00018   0.00071   0.00088   1.89633
    A9        1.90126   0.00016   0.00001   0.00083   0.00084   1.90210
   A10        1.94639  -0.00057  -0.00026   0.00077   0.00051   1.94690
   A11        1.93054   0.00018  -0.00028   0.00018  -0.00010   1.93044
   A12        1.89088  -0.00013   0.00001  -0.00160  -0.00159   1.88929
   A13        1.91101   0.00067   0.00000   0.00406   0.00406   1.91506
   A14        1.91101   0.00067   0.00000   0.00406   0.00406   1.91506
    D1       -1.35019   0.00097   0.00000   0.00000   0.00000  -1.35018
    D2        0.77126   0.00050   0.00000   0.00085   0.00086   0.77212
    D3        2.82732   0.00049   0.00012  -0.00020  -0.00008   2.82723
    D4        0.77126   0.00050   0.00000   0.00085   0.00086   0.77212
    D5        2.89271   0.00002   0.00001   0.00171   0.00172   2.89442
    D6       -1.33442   0.00001   0.00012   0.00065   0.00078  -1.33365
    D7        2.82732   0.00049   0.00012  -0.00020  -0.00008   2.82723
    D8       -1.33442   0.00001   0.00012   0.00065   0.00078  -1.33365
    D9        0.72163   0.00001   0.00024  -0.00041  -0.00017   0.72147
   D10        3.03268  -0.00044   0.00049  -0.01776  -0.01727   3.01541
   D11        0.94262  -0.00038   0.00020  -0.01856  -0.01836   0.92427
   D12       -1.16296   0.00004   0.00055  -0.01717  -0.01661  -1.17957
   D13        3.03268  -0.00044   0.00049  -0.01776  -0.01727   3.01541
   D14        0.94262  -0.00038   0.00020  -0.01856  -0.01836   0.92427
   D15       -1.16296   0.00004   0.00055  -0.01717  -0.01661  -1.17957
         Item               Value     Threshold  Converged?
 Maximum Force            0.001224     0.000450     NO 
 RMS     Force            0.000330     0.000300     NO 
 Maximum Displacement     0.020989     0.001800     NO 
 RMS     Displacement     0.006317     0.001200     NO 
 Predicted change in Energy=-1.968950D-05
 GradGradGradGradGradGradGradGradGradGradGradGradGradGradGradGradGradGrad

                          Input orientation:                          
 ---------------------------------------------------------------------
 Center     Atomic      Atomic             Coordinates (Angstroms)
 Number     Number       Type             X           Y           Z
 ---------------------------------------------------------------------
      1          6           0       -0.245178    0.714876    0.555776
      2          6           0        0.245178   -0.714876    0.555776
      3          1           0        0.016476    2.274174   -0.564644
      4          1           0       -0.016476   -2.274174   -0.564644
      5          8           0        0.393216    1.410099   -0.480237
      6          8           0       -0.393216   -1.410099   -0.480237
      7          1           0       -1.324543    0.712144    0.428841
      8          1           0       -0.016321    1.167783    1.519110
      9          1           0        1.324543   -0.712144    0.428841
     10          1           0        0.016322   -1.167783    1.519110
 ---------------------------------------------------------------------
                    Distance matrix (angstroms):
                    1          2          3          4          5
     1  C    0.000000
     2  C    1.511502   0.000000
     3  H    1.937837   3.200323   0.000000
     4  H    3.200323   1.937837   4.548468   0.000000
     5  O    1.401501   2.368704   0.946405   3.707943   0.000000
     6  O    2.368704   1.401501   3.707943   0.946405   2.927797
     7  H    1.086807   2.125211   2.285888   3.408247   2.065008
     8  H    1.088812   2.130915   2.359492   4.023568   2.055195
     9  H    2.125211   1.086807   3.408247   2.285888   2.489520
    10  H    2.130915   1.088812   4.023568   2.359492   3.284039
                    6          7          8          9         10
     6  O    0.000000
     7  H    2.489520   0.000000
     8  H    3.284039   1.762877   0.000000
     9  H    2.065008   3.007699   2.553571   0.000000
    10  H    2.055195   2.553571   2.335794   1.762877   0.000000
 Stoichiometry    C2H6O2
 Framework group  C2[X(C2H6O2)]
 Deg. of freedom    13
 Full point group                 C2      NOp   2
 Largest Abelian subgroup         C2      NOp   2
 Largest concise Abelian subgroup C2      NOp   2
                         Standard orientation:                         
 ---------------------------------------------------------------------
 Center     Atomic      Atomic             Coordinates (Angstroms)
[...]
 Calling FoFJK, ICntrl=      2127 FMM=F ISym2X=1 I1Cent= 0 IOpClX= 0 NMat=1 NMatS=1 NMatT=0.
 ***** Axes restored to original set *****
 -------------------------------------------------------------------
 Center     Atomic                   Forces (Hartrees/Bohr)
 Number     Number              X              Y              Z
 -------------------------------------------------------------------
      1        6           0.001381873    0.000372411    0.000677159
      2        6          -0.001381873   -0.000372411    0.000677159
      3        1          -0.000002989   -0.000007668    0.000011486
      4        1           0.000002989    0.000007668    0.000011486
      5        8          -0.000825083   -0.000244101   -0.000709757
      6        8           0.000825083    0.000244101   -0.000709757
      7        1           0.000023865   -0.000032795    0.000002079
      8        1           0.000010070    0.000007351    0.000019033
      9        1          -0.000023865    0.000032795    0.000002079
     10        1          -0.000010070   -0.000007351    0.000019033
 -------------------------------------------------------------------
 Cartesian Forces:  Max     0.001381873 RMS     0.000500218

 GradGradGradGradGradGradGradGradGradGradGradGradGradGradGradGradGradGrad
 Berny optimization.
 Using GEDIIS/GDIIS optimizer.
 Internal  Forces:  Max     0.001035801 RMS     0.000277536
 Search for a local minimum.
 Step number   9 out of a maximum of   48
 All quantities printed in internal units (Hartrees-Bohrs-Radians)
 Mixed Optimization -- En-DIIS/RFO-DIIS
 Swaping is turned off.
 Update second derivatives using D2CorX and points    3    4    5    6    7
                                                      8    9
 DE= -2.72D-06 DEPred=-2.32D-06 R= 1.17D+00
 SS=  1.41D+00  RLast= 3.51D-02 DXNew= 1.4270D+00 1.0536D-01
 Trust test= 1.17D+00 RLast= 3.51D-02 DXMaxT set to 8.49D-01
     Eigenvalues ---    0.00177   0.01695   0.02357   0.05399   0.06156
     Eigenvalues ---    0.06528   0.11173   0.13594   0.13717   0.14563
     Eigenvalues ---    0.16000   0.18954   0.22021   0.22542   0.34873
     Eigenvalues ---    0.34902   0.34951   0.35188   0.40027   0.45659
     Eigenvalues ---    0.51910   0.58505   0.591711000.000001000.00000
     Eigenvalues --- 1000.000001000.000001000.000001000.000001000.00000
     Eigenvalues --- 1000.000001000.000001000.000001000.000001000.00000
     Eigenvalues --- 1000.000001000.000001000.00000
 En-DIIS/RFO-DIIS IScMMF=        0 using points:     9    8    7    6    5
 RFO step:  Lambda=-1.45201243D-07.
 DIIS coeffs:      0.94625      0.15226     -0.18348      0.10421     -0.01924
 Iteration  1 RMS(Cart)=  0.00027913 RMS(Int)=  0.00000016
 Iteration  2 RMS(Cart)=  0.00000005 RMS(Int)=  0.00000015
 Iteration  1 RMS(Cart)=  0.00000022 RMS(Int)=  0.00000024
 ClnCor:  largest displacement from symmetrization is 7.50D-13 for atom     4.
 Variable       Old X    -DE/DX   Delta X   Delta X   Delta X     New X
                                  (DIIS)     (GDIIS)  (Total)
    R1        2.85591  -0.00009  -0.00026  -0.00001  -0.00027   2.85563
    R2        2.64877   0.00001   0.00000   0.00001   0.00002   2.64879
    R3        2.05282  -0.00002   0.00000  -0.00005  -0.00005   2.05277
    R4        2.05791   0.00002   0.00003   0.00002   0.00005   2.05797
    R5        2.64877   0.00001   0.00000   0.00001   0.00002   2.64879
    R6        2.05282  -0.00002   0.00000  -0.00005  -0.00005   2.05277
    R7        2.05791   0.00002   0.00003   0.00002   0.00005   2.05797
    R8        1.78802  -0.00001  -0.00001  -0.00001  -0.00001   1.78800
    R9        1.78802  -0.00001  -0.00001  -0.00001  -0.00001   1.78800
    A1        1.89897   0.00006   0.00027   0.00001   0.00029   1.89925
    A2        1.89717  -0.00014  -0.00024   0.00002  -0.00022   1.89695
    A3        1.90309   0.00008  -0.00004  -0.00005  -0.00009   1.90300
    A4        1.94676  -0.00040  -0.00001   0.00004   0.00003   1.94679
    A5        1.92821   0.00038  -0.00009   0.00003  -0.00006   1.92816
    A6        1.88900   0.00002   0.00010  -0.00006   0.00004   1.88904
    A7        1.89897   0.00006   0.00027   0.00001   0.00029   1.89925
    A8        1.89717  -0.00014  -0.00024   0.00002  -0.00022   1.89695
    A9        1.90309   0.00008  -0.00004  -0.00005  -0.00009   1.90300
   A10        1.94676  -0.00040  -0.00001   0.00004   0.00003   1.94679
   A11        1.92821   0.00038  -0.00009   0.00003  -0.00006   1.92816
   A12        1.88900   0.00002   0.00010  -0.00006   0.00004   1.88904
   A13        1.91619  -0.00002  -0.00012  -0.00001  -0.00014   1.91605
   A14        1.91619  -0.00002  -0.00012  -0.00001  -0.00014   1.91605
    D1       -1.35018   0.00104   0.00000   0.00000   0.00000  -1.35018
    D2        0.77301   0.00050   0.00001   0.00007   0.00008   0.77309
    D3        2.82881   0.00049  -0.00003  -0.00001  -0.00005   2.82876
    D4        0.77301   0.00050   0.00001   0.00007   0.00008   0.77309
    D5        2.89620  -0.00004   0.00002   0.00014   0.00016   2.89636
    D6       -1.33118  -0.00005  -0.00002   0.00006   0.00003  -1.33115
    D7        2.82881   0.00049  -0.00003  -0.00001  -0.00005   2.82876
    D8       -1.33118  -0.00005  -0.00002   0.00006   0.00003  -1.33115
    D9        0.72462  -0.00006  -0.00007  -0.00003  -0.00010   0.72452
   D10        2.89189  -0.00025   0.00018   0.00004   0.00023   2.89212
   D11        0.79921   0.00013   0.00031  -0.00002   0.00029   0.79950
   D12       -1.30266   0.00012   0.00025   0.00001   0.00026  -1.30240
   D13        2.89189  -0.00025   0.00018   0.00004   0.00023   2.89212
   D14        0.79921   0.00013   0.00031  -0.00002   0.00029   0.79950
   D15       -1.30266   0.00012   0.00025   0.00001   0.00026  -1.30240
         Item               Value     Threshold  Converged?
 Maximum Force            0.000093     0.000450     YES
 RMS     Force            0.000026     0.000300     YES
 Maximum Displacement     0.000707     0.001800     YES
 RMS     Displacement     0.000279     0.001200     YES
 Predicted change in Energy=-5.558122D-08
 Optimization completed.
    -- Stationary point found.
                           ----------------------------
                           !   Optimized Parameters   !
                           ! (Angstroms and Degrees)  !
 --------------------------                            --------------------------
 ! Name  Definition              Value          Derivative Info.                !
 --------------------------------------------------------------------------------
 ! R1    R(1,2)                  1.5113         -DE/DX =   -0.0001              !
 ! R2    R(1,5)                  1.4017         -DE/DX =    0.0                 !
 ! R3    R(1,7)                  1.0863         -DE/DX =    0.0                 !
 ! R4    R(1,8)                  1.089          -DE/DX =    0.0                 !
 ! R5    R(2,6)                  1.4017         -DE/DX =    0.0                 !
 ! R6    R(2,9)                  1.0863         -DE/DX =    0.0                 !
 ! R7    R(2,10)                 1.089          -DE/DX =    0.0                 !
 ! R8    R(3,5)                  0.9462         -DE/DX =    0.0                 !
 ! R9    R(4,6)                  0.9462         -DE/DX =    0.0                 !
 ! A1    A(2,1,5)              108.8028         -DE/DX =    0.0001              !
 ! A2    A(2,1,7)              108.6997         -DE/DX =   -0.0001              !
 ! A3    A(2,1,8)              109.0389         -DE/DX =    0.0001              !
 ! A4    A(5,1,7)              111.541          -DE/DX =   -0.0004              !
 ! A5    A(5,1,8)              110.4785         -DE/DX =    0.0004              !
 ! A6    A(7,1,8)              108.2317         -DE/DX =    0.0                 !
 ! A7    A(1,2,6)              108.8028         -DE/DX =    0.0001              !
 ! A8    A(1,2,9)              108.6997         -DE/DX =   -0.0001              !
 ! A9    A(1,2,10)             109.0389         -DE/DX =    0.0001              !
 ! A10   A(6,2,9)              111.541          -DE/DX =   -0.0004              !
 ! A11   A(6,2,10)             110.4785         -DE/DX =    0.0004              !
 ! A12   A(9,2,10)             108.2317         -DE/DX =    0.0                 !
 ! A13   A(1,5,3)              109.7894         -DE/DX =    0.0                 !
 ! A14   A(2,6,4)              109.7894         -DE/DX =    0.0                 !
 ! D1    D(5,1,2,6)            -77.3597         -DE/DX =    0.001               !
 ! D2    D(5,1,2,9)             44.2902         -DE/DX =    0.0005              !
 ! D3    D(5,1,2,10)           162.0789         -DE/DX =    0.0005              !
 ! D4    D(7,1,2,6)             44.2902         -DE/DX =    0.0005              !
 ! D5    D(7,1,2,9)            165.94           -DE/DX =    0.0                 !
 ! D6    D(7,1,2,10)           -76.2713         -DE/DX =   -0.0001              !
 ! D7    D(8,1,2,6)            162.0789         -DE/DX =    0.0005              !
 ! D8    D(8,1,2,9)            -76.2713         -DE/DX =   -0.0001              !
 ! D9    D(8,1,2,10)            41.5175         -DE/DX =   -0.0001              !
 ! D10   D(2,1,5,3)            165.6931         -DE/DX =   -0.0002              !
 ! D11   D(7,1,5,3)             45.7914         -DE/DX =    0.0001              !
 ! D12   D(8,1,5,3)            -74.637          -DE/DX =    0.0001              !
 ! D13   D(1,2,6,4)            165.6931         -DE/DX =   -0.0002              !
 ! D14   D(9,2,6,4)             45.7914         -DE/DX =    0.0001              !
 ! D15   D(10,2,6,4)           -74.637          -DE/DX =    0.0001              !
 --------------------------------------------------------------------------------
 GradGradGradGradGradGradGradGradGradGradGradGradGradGradGradGradGradGrad

                          Input orientation:                          
 ---------------------------------------------------------------------
 Center     Atomic      Atomic             Coordinates (Angstroms)
 Number     Number       Type             X           Y           Z
 ---------------------------------------------------------------------
      1          6           0       -0.235321    0.718065    0.570197
      2          6           0        0.235321   -0.718065    0.570197
      3          1           0       -0.022718    2.231190   -0.622787
      4          1           0        0.022718   -2.231190   -0.622787
      5          8           0        0.412002    1.405617   -0.465623
      6          8           0       -0.412002   -1.405617   -0.465623
      7          1           0       -1.314226    0.730994    0.444263
      8          1           0        0.000771    1.169268    1.532796
      9          1           0        1.314226   -0.730994    0.444263
     10          1           0       -0.000771   -1.169268    1.532796
 ---------------------------------------------------------------------
                    Distance matrix (angstroms):
                    1          2          3          4          5
     1  C    0.000000
     2  C    1.511281   0.000000
     3  H    1.938546   3.191848   0.000000
     4  H    3.191848   1.938546   4.462611   0.000000
     5  O    1.401670   2.369422   0.946178   3.660957   0.000000
     6  O    2.369422   1.401670   3.660957   0.946178   2.929508
     7  H    1.086308   2.125259   2.248817   3.420607   2.064673
     8  H    1.089000   2.131580   2.403075   4.026181   2.053936
     9  H    2.125259   1.086308   3.420607   2.248817   2.491387
    10  H    2.131580   1.089000   4.026181   2.403075   3.285437
                    6          7          8          9         10
     6  O    0.000000
     7  H    2.491387   0.000000
     8  H    3.285437   1.762443   0.000000
     9  H    2.064673   3.007686   2.553638   0.000000
    10  H    2.053936   2.553638   2.338536   1.762443   0.000000
 Stoichiometry    C2H6O2
 Framework group  C2[X(C2H6O2)]
 Deg. of freedom    13
 Full point group                 C2      NOp   2
 Largest Abelian subgroup         C2      NOp   2
 Largest concise Abelian subgroup C2      NOp   2
                         Standard orientation:                         
 ---------------------------------------------------------------------
 Center     Atomic      Atomic             Coordinates (Angstroms)
 Number     Number       Type             X           Y           Z
 ---------------------------------------------------------------------
      1          6           0       -0.294045    0.696082    0.508405
      2          6           0        0.294045   -0.696082    0.508405
      3          1           0       -0.207627    2.221625   -0.684579
      4          1           0        0.207627   -2.221625   -0.684579
      5          8           0        0.294045    1.434936   -0.527415
      6          8           0       -0.294045   -1.434936   -0.527415
      7          1           0       -1.370308    0.619516    0.382471
      8          1           0       -0.096175    1.165306    1.471004
      9          1           0        1.370308   -0.619516    0.382471
     10          1           0        0.096175   -1.165306    1.471004
 ---------------------------------------------------------------------
 Rotational constants (GHZ):     17.4555897      5.0696190      4.5135694

 **********************************************************************

            Population analysis using the SCF density.

 **********************************************************************

 Orbital symmetries:
       Occupied  (B) (A) (A) (B) (A) (B) (A) (B) (B) (A) (A) (B)
                 (A) (B) (A) (A) (B)
       Virtual   (A) (B) (A) (B) (A) (B) (B) (B) (A) (A) (B) (A)
                 (B) (A) (B) (A) (B) (A) (B) (A) (B) (A) (A) (B)
                 (B) (A) (A) (B) (B) (B) (A) (A) (B) (A) (B) (A)
                 (B) (A) (B) (B) (A) (A) (A) (B) (A) (B) (B) (A)
                 (B) (A) (B) (B) (A) (A) (B)
 The electronic state is 1-A.
 Alpha  occ. eigenvalues --  -20.55270 -20.55270 -11.26979 -11.26913  -1.37042
 Alpha  occ. eigenvalues --   -1.35054  -1.00152  -0.83062  -0.71419  -0.70805
 Alpha  occ. eigenvalues --   -0.60993  -0.59999  -0.58829  -0.52582  -0.47223
 Alpha  occ. eigenvalues --   -0.44132  -0.43923
 Alpha virt. eigenvalues --    0.22586   0.23723   0.28444   0.31493   0.32697
 Alpha virt. eigenvalues --    0.33885   0.40055   0.41201   0.42771   0.75289
 Alpha virt. eigenvalues --    0.81353   0.82027   0.82648   0.89201   0.93944
 Alpha virt. eigenvalues --    1.06286   1.12004   1.13023   1.13045   1.14063
 Alpha virt. eigenvalues --    1.20199   1.20744   1.25425   1.27163   1.29002
 Alpha virt. eigenvalues --    1.32118   1.47300   1.47693   1.53163   1.70591
 Alpha virt. eigenvalues --    1.75152   1.85421   1.89930   2.00565   2.00831
 Alpha virt. eigenvalues --    2.12217   2.14114   2.26023   2.34459   2.43457
 Alpha virt. eigenvalues --    2.46296   2.49421   2.65796   2.71074   2.71919
 Alpha virt. eigenvalues --    2.78267   2.87116   3.00359   3.01874   3.21319
 Alpha virt. eigenvalues --    3.24391   4.15195   4.21113   4.64530   4.86331
          Condensed to atoms (all electrons):
              1          2          3          4          5          6
     1  C    4.796588   0.361335  -0.022372   0.006096   0.216158  -0.058018
     2  C    0.361335   4.796588   0.006096  -0.022372  -0.058018   0.216158
     3  H   -0.022372   0.006096   0.319769   0.000019   0.263249  -0.000237
     4  H    0.006096  -0.022372   0.000019   0.319769  -0.000237   0.263249
     5  O    0.216158  -0.058018   0.263249  -0.000237   8.384840   0.004909
     6  O   -0.058018   0.216158  -0.000237   0.263249   0.004909   8.384840
     7  H    0.393581  -0.037545  -0.005392  -0.000169  -0.036745  -0.000416
     8  H    0.395915  -0.050471  -0.001362  -0.000209  -0.041574   0.003083
     9  H   -0.037545   0.393581  -0.000169  -0.005392  -0.000416  -0.036745
    10  H   -0.050471   0.395915  -0.000209  -0.001362   0.003083  -0.041574
              7          8          9         10
     1  C    0.393581   0.395915  -0.037545  -0.050471
     2  C   -0.037545  -0.050471   0.393581   0.395915
     3  H   -0.005392  -0.001362  -0.000169  -0.000209
     4  H   -0.000169  -0.000209  -0.005392  -0.001362
     5  O   -0.036745  -0.041574  -0.000416   0.003083
     6  O   -0.000416   0.003083  -0.036745  -0.041574
     7  H    0.565513  -0.042106   0.005521  -0.001021
     8  H   -0.042106   0.597990  -0.001021   0.002626
     9  H    0.005521  -0.001021   0.565513  -0.042106
    10  H   -0.001021   0.002626  -0.042106   0.597990
 Mulliken atomic charges:
              1
     1  C   -0.001267
     2  C   -0.001267
     3  H    0.440608
     4  H    0.440608
     5  O   -0.735249
     6  O   -0.735249
     7  H    0.158780
     8  H    0.137129
     9  H    0.158780
    10  H    0.137129
 Sum of Mulliken atomic charges =   0.00000
 Mulliken charges with hydrogens summed into heavy atoms:
              1
     1  C    0.294642
     2  C    0.294642
     5  O   -0.294642
     6  O   -0.294642
 Sum of Mulliken charges with hydrogens summed into heavy atoms =   0.00000
 Electronic spatial extent (au):  <R**2>=            306.3203
 Charge=              0.0000 electrons
 Dipole moment (field-independent basis, Debye):
    X=              0.0000    Y=              0.0000    Z=              1.5804  Tot=              1.5804
 Quadrupole moment (field-independent basis, Debye-Ang):
   XX=            -25.3132   YY=            -17.8630   ZZ=            -25.3826
   XY=             -5.4214   XZ=              0.0000   YZ=              0.0000
 Traceless Quadrupole moment (field-independent basis, Debye-Ang):
   XX=             -2.4602   YY=              4.9899   ZZ=             -2.5297
   XY=             -5.4214   XZ=              0.0000   YZ=              0.0000
 Octapole moment (field-independent basis, Debye-Ang**2):
  XXX=              0.0000  YYY=              0.0000  ZZZ=             -3.2498  XYY=              0.0000
  XXY=              0.0000  XXZ=             -1.1108  XZZ=              0.0000  YZZ=              0.0000
  YYZ=             -7.6220  XYZ=              3.1292
 Hexadecapole moment (field-independent basis, Debye-Ang**3):
 XXXX=            -48.4868 YYYY=           -159.7417 ZZZZ=            -79.5376 XXXY=             -4.5163
 XXXZ=              0.0000 YYYX=            -20.4850 YYYZ=              0.0000 ZZZX=              0.0000
 ZZZY=              0.0000 XXYY=            -48.7031 XXZZ=            -22.3512 YYZZ=            -45.4834
 XXYZ=              0.0000 YYXZ=              0.0000 ZZXY=             -2.1049
 N-N= 1.332374932413D+02 E-N=-8.062930303888D+02  KE= 2.285717317566D+02
 Symmetry A    KE= 1.154700639203D+02
 Symmetry B    KE= 1.131016678363D+02
 1\1\GINC-NODE9\FOpt\RHF\6-31G(d)\C2H6O2\WUCH\14-Sep-2010\0\\#HF/6-31G*
  Opt=ModRed MaxDisk=32GB\\12-ethanediol Rotatable Bond Optimization on
  node9.bme.utexas.edu\\0,1\C,-0.2353205205,0.7180645184,0.5701969315\C
 ,0.2353205763,-0.7180645229,0.5701968974\H,-0.0227179743,2.2311899153,
 -0.6227870499\H,0.0227179175,-2.2311898999,-0.6227870891\O,0.412002291
 3,1.4056169174,-0.4656231704\O,-0.4120023332,-1.4056169046,-0.46562315
 48\H,-1.3142262308,0.7309941618,0.4442631212\H,0.0007708073,1.16926790
 24,1.5327961505\H,1.3142262747,-0.7309941642,0.4442629851\H,-0.0007706
 607,-1.1692679228,1.5327961312\\Version=EM64L-G09RevA.02\State=1-A\HF=
 -228.9196191\RMSD=5.715e-09\RMSF=5.002e-04\Dipole=0.,0.,0.6217935\Quad
 rupole=-2.457122,4.3378923,-1.8807703,-3.5176046,0.,0.0000002\PG=C02 [
 X(C2H6O2)]\\@


 Age does not diminish the extreme disappointment of
 having a scoop of ice cream fall from the cone.
 -- Jim Fiebig
 Job cpu time:  0 days  0 hours  0 minutes 47.7 seconds.
 File lengths (MBytes):  RWF=      5 Int=      0 D2E=      0 Chk=      2 Scr=      1
 Normal termination of Gaussian 09 at Tue Sep 14 14:52:25 2010.
