 Entering Gaussian System, Link 0=/opt/g09/gaussian/g09/bin/g09
 Input=12-ethanediol-m06lsp-5-1-2-6-133.com
 Output=12-ethanediol-m06lsp-5-1-2-6-133.log
 Initial command:
 /opt/g09/gaussian/g09/bin/l1.exe /scratch/Gau-12-ethanediol/Gau-18883.inp -scrdir=/scratch/Gau-12-ethanediol/
 Entering Link 1 = /opt/g09/gaussian/g09/bin/l1.exe PID=     18884.
  
 Copyright (c) 1988,1990,1992,1993,1995,1998,2003,2009, Gaussian, Inc.
                  All Rights Reserved.
  
 This is part of the Gaussian(R) 09 program.  It is based on
 the Gaussian(R) 03 system (copyright 2003, Gaussian, Inc.),
 the Gaussian(R) 98 system (copyright 1998, Gaussian, Inc.),
 the Gaussian(R) 94 system (copyright 1995, Gaussian, Inc.),
 the Gaussian 92(TM) system (copyright 1992, Gaussian, Inc.),
 the Gaussian 90(TM) system (copyright 1990, Gaussian, Inc.),
 the Gaussian 88(TM) system (copyright 1988, Gaussian, Inc.),
 the Gaussian 86(TM) system (copyright 1986, Carnegie Mellon
 University), and the Gaussian 82(TM) system (copyright 1983,
 Carnegie Mellon University). Gaussian is a federally registered
 trademark of Gaussian, Inc.
  
 This software contains proprietary and confidential information,
 including trade secrets, belonging to Gaussian, Inc.
  
 This software is provided under written license and may be
 used, copied, transmitted, or stored only in accord with that
 written license.
  
 The following legend is applicable only to US Government
 contracts under FAR:
  
                    RESTRICTED RIGHTS LEGEND
  
 Use, reproduction and disclosure by the US Government is
 subject to restrictions as set forth in subparagraphs (a)
 and (c) of the Commercial Computer Software - Restricted
 Rights clause in FAR 52.227-19.
  
 Gaussian, Inc.
 340 Quinnipiac St., Bldg. 40, Wallingford CT 06492
  
  
 ---------------------------------------------------------------
 Warning -- This program may not be used in any manner that
 competes with the business of Gaussian, Inc. or will provide
 assistance to any competitor of Gaussian, Inc.  The licensee
 of this program is prohibited from giving any competitor of
 Gaussian, Inc. access to this program.  By using this program,
 the user acknowledges that Gaussian, Inc. is engaged in the
 business of creating and licensing software in the field of
 computational chemistry and represents and warrants to the
 licensee that it is not a competitor of Gaussian, Inc. and that
 it will not use this program in any manner prohibited above.
 ---------------------------------------------------------------
  

 Cite this work as:
 Gaussian 09, Revision A.02,
 M. J. Frisch, G. W. Trucks, H. B. Schlegel, G. E. Scuseria, 
 M. A. Robb, J. R. Cheeseman, G. Scalmani, V. Barone, B. Mennucci, 
 G. A. Petersson, H. Nakatsuji, M. Caricato, X. Li, H. P. Hratchian, 
 A. F. Izmaylov, J. Bloino, G. Zheng, J. L. Sonnenberg, M. Hada, 
 M. Ehara, K. Toyota, R. Fukuda, J. Hasegawa, M. Ishida, T. Nakajima, 
 Y. Honda, O. Kitao, H. Nakai, T. Vreven, J. A. Montgomery, Jr., 
 J. E. Peralta, F. Ogliaro, M. Bearpark, J. J. Heyd, E. Brothers, 
 K. N. Kudin, V. N. Staroverov, R. Kobayashi, J. Normand, 
 K. Raghavachari, A. Rendell, J. C. Burant, S. S. Iyengar, J. Tomasi, 
 M. Cossi, N. Rega, J. M. Millam, M. Klene, J. E. Knox, J. B. Cross, 
 V. Bakken, C. Adamo, J. Jaramillo, R. Gomperts, R. E. Stratmann, 
 O. Yazyev, A. J. Austin, R. Cammi, C. Pomelli, J. W. Ochterski, 
 R. L. Martin, K. Morokuma, V. G. Zakrzewski, G. A. Voth, 
 P. Salvador, J. J. Dannenberg, S. Dapprich, A. D. Daniels, 
 O. Farkas, J. B. Foresman, J. V. Ortiz, J. Cioslowski, 
 and D. J. Fox, Gaussian, Inc., Wallingford CT, 2009.
 
 ******************************************
 Gaussian 09:  EM64L-G09RevA.02 11-Jun-2009
                14-Sep-2010 
 ******************************************
 %RWF=/scratch/Gau-12-ethanediol/,32GB
 %Nosave
 %Chk=12-ethanediol-m06lsp-5-1-2-6-133.chk
 %Mem=389242KB
 %Nproc=1
 Will use up to    1 processors via shared memory.
 --------------------------------------------------------------
 #M06L/6-31G** SP SCF=(qc,maxcycle=800) Guess=Indo MaxDisk=32GB
 --------------------------------------------------------------
 1/38=1/1;
 2/12=2,17=6,18=5,40=1/2;
 3/5=1,6=6,7=101,11=2,16=1,25=1,30=1,74=-53/1,2,3;
 4/5=4,11=3/1;
 5/5=2,7=800,8=3,38=5/8;
 6/7=2,8=2,9=2,10=2,28=1/1;
 99/5=1,9=1/99;
 -------------------------------------------------------------------
 12-ethanediol Rotatable Bond SP Calculation on node9.bme.utexas.edu
 -------------------------------------------------------------------
 Symbolic Z-matrix:
 Charge =  0 Multiplicity = 1
 C                     0.40314   0.64779   0.26012 
 C                    -0.40314  -0.64779   0.26012 
 H                     0.07216   2.48422  -0.26483 
 H                    -0.07216  -2.48422  -0.26483 
 O                    -0.40314   1.66575  -0.27597 
 O                     0.40314  -1.66575  -0.27597 
 H                     0.73066   0.90431   1.26442 
 H                     1.28482   0.48987  -0.3525 
 H                    -0.73066  -0.90431   1.26442 
 H                    -1.28482  -0.48987  -0.3525 
 
                          Input orientation:                          
 ---------------------------------------------------------------------
 Center     Atomic      Atomic             Coordinates (Angstroms)
 Number     Number       Type             X           Y           Z
 ---------------------------------------------------------------------
      1          6           0        0.403141    0.647792    0.260116
      2          6           0       -0.403141   -0.647792    0.260116
      3          1           0        0.072160    2.484222   -0.264829
      4          1           0       -0.072160   -2.484222   -0.264829
      5          8           0       -0.403141    1.665751   -0.275974
      6          8           0        0.403141   -1.665751   -0.275974
      7          1           0        0.730658    0.904314    1.264420
      8          1           0        1.284821    0.489869   -0.352497
      9          1           0       -0.730658   -0.904314    1.264420
     10          1           0       -1.284821   -0.489869   -0.352497
 ---------------------------------------------------------------------
                    Distance matrix (angstroms):
                    1          2          3          4          5
     1  C    0.000000
     2  C    1.525984   0.000000
     3  H    1.938451   3.211073   0.000000
     4  H    3.211073   1.938451   4.970540   0.000000
     5  O    1.404893   2.374842   0.946536   4.163166   0.000000
     6  O    2.374842   1.404893   4.163166   0.946536   3.427681
     7  H    1.087059   2.168677   2.295285   3.803327   2.058665
     8  H    1.085170   2.125743   2.335739   3.270214   2.058584
     9  H    2.168677   1.087059   3.803327   2.295285   3.014186
    10  H    2.125743   1.085170   3.270214   2.335739   2.330217
                    6          7          8          9         10
     6  O    0.000000
     7  H    3.014186   0.000000
     8  H    2.330217   1.758773   0.000000
     9  H    2.058665   2.325205   2.936039   0.000000
    10  H    2.058584   2.936039   2.750081   1.758773   0.000000
 Stoichiometry    C2H6O2
 Framework group  C2[X(C2H6O2)]
 Deg. of freedom    13
 Full point group                 C2      NOp   2
 Largest Abelian subgroup         C2      NOp   2
 Largest concise Abelian subgroup C2      NOp   2
                         Standard orientation:                         
 ---------------------------------------------------------------------
 Center     Atomic      Atomic             Coordinates (Angstroms)
 Number     Number       Type             X           Y           Z
 ---------------------------------------------------------------------
      1          6           0        0.403141    0.647792    0.260116
      2          6           0       -0.403141   -0.647792    0.260116
      3          1           0        0.072160    2.484222   -0.264829
      4          1           0       -0.072160   -2.484222   -0.264829
      5          8           0       -0.403141    1.665751   -0.275974
      6          8           0        0.403141   -1.665751   -0.275974
      7          1           0        0.730658    0.904314    1.264420
      8          1           0        1.284821    0.489869   -0.352497
      9          1           0       -0.730658   -0.904314    1.264420
     10          1           0       -1.284821   -0.489869   -0.352497
 ---------------------------------------------------------------------
 Rotational constants (GHZ):     25.6788857      4.1243737      3.9818966
 Standard basis: 6-31G(d,p) (6D, 7F)
 There are    45 symmetry adapted basis functions of A   symmetry.
 There are    45 symmetry adapted basis functions of B   symmetry.
 Integral buffers will be    131072 words long.
 Raffenetti 2 integral format.
 Two-electron integral symmetry is turned on.
    90 basis functions,   154 primitive gaussians,    90 cartesian basis functions
    17 alpha electrons       17 beta electrons
       nuclear repulsion energy       131.4298841992 Hartrees.
 NAtoms=   10 NActive=   10 NUniq=    5 SFac= 3.00D+00 NAtFMM=   80 NAOKFM=F Big=F
 One-electron integrals computed using PRISM.
 NBasis=    90 RedAO= T  NBF=    45    45
 NBsUse=    90 1.00D-06 NBFU=    45    45
 Projected INDO guess.
 Initial guess orbital symmetries:
       Occupied  (A) (B) (B) (A) (A) (B) (A) (B) (A) (B) (A) (B)
                 (A) (B) (A) (A) (B)
       Virtual   (B) (A) (B) (A) (A) (B) (B) (B) (A) (A) (A) (A)
                 (A) (A) (A) (A) (A) (A) (A) (A) (A) (A) (A) (A)
                 (A) (A) (A) (A) (A) (A) (A) (A) (A) (A) (A) (A)
                 (A) (A) (A) (A) (A) (B) (B) (B) (B) (B) (B) (B)
                 (B) (B) (B) (B) (B) (B) (B) (B) (B) (B) (B) (B)
                 (B) (B) (B) (B) (B) (B) (B) (B) (B) (B) (B) (B)
                 (B)
 The electronic state of the initial guess is 1-A.
 Keep J ints in memory in canonical form, NReq=9445589.
 Gradient too large for Newton-Raphson -- use scaled steepest descent instead.
 Gradient too large for Newton-Raphson -- use scaled steepest descent instead.
 Gradient too large for Newton-Raphson -- use scaled steepest descent instead.
 Gradient too large for Newton-Raphson -- use scaled steepest descent instead.
 Gradient too large for Newton-Raphson -- use scaled steepest descent instead.
 Gradient too large for Newton-Raphson -- use scaled steepest descent instead.
 Gradient too large for Newton-Raphson -- use scaled steepest descent instead.
 LinEq1:  Iter=  0 NonCon=     1 RMS=5.61D-05 Max=7.10D-04
 AX will form     1 AO Fock derivatives at one time.
 LinEq1:  Iter=  1 NonCon=     1 RMS=2.87D-05 Max=2.41D-04
 LinEq1:  Iter=  2 NonCon=     1 RMS=2.37D-06 Max=2.11D-05
 LinEq1:  Iter=  3 NonCon=     1 RMS=1.69D-07 Max=1.45D-06
 LinEq1:  Iter=  4 NonCon=     1 RMS=2.90D-08 Max=3.44D-07
 LinEq1:  Iter=  5 NonCon=     1 RMS=1.65D-08 Max=1.04D-07
 LinEq1:  Iter=  6 NonCon=     0 RMS=2.65D-09 Max=1.92D-08
 Linear equations converged to 4.982D-09 4.982D-08 after     6 iterations.
 LinEq1:  Iter=  0 NonCon=     1 RMS=2.03D-08 Max=2.85D-07
 LinEq1:  Iter=  1 NonCon=     1 RMS=5.75D-09 Max=5.02D-08
 LinEq1:  Iter=  2 NonCon=     1 RMS=2.78D-09 Max=2.28D-08
 LinEq1:  Iter=  3 NonCon=     1 RMS=1.28D-09 Max=1.34D-08
 LinEq1:  Iter=  4 NonCon=     1 RMS=6.76D-10 Max=6.60D-09
 LinEq1:  Iter=  5 NonCon=     1 RMS=2.04D-10 Max=1.87D-09
 LinEq1:  Iter=  6 NonCon=     1 RMS=4.71D-11 Max=4.83D-10
 LinEq1:  Iter=  7 NonCon=     1 RMS=1.16D-11 Max=9.05D-11
 LinEq1:  Iter=  8 NonCon=     0 RMS=2.32D-12 Max=2.31D-11
 Linear equations converged to 7.538D-12 7.538D-11 after     8 iterations.
 SCF Done:  E(RM06L) =  -230.212459017     a.u. after   10 cycles
            Convg  =    0.4695D-06                    49 Fock formations.
              S**2 =  0.0000                  -V/T =  2.0067

 **********************************************************************

            Population analysis using the SCF density.

 **********************************************************************

 Orbital symmetries:
       Occupied  (A) (B) (A) (B) (A) (B) (A) (B) (B) (A) (A) (A)
                 (B) (B) (A) (A) (B)
       Virtual   (B) (A) (A) (A) (B) (B) (B) (A) (B) (A) (B) (A)
                 (A) (B) (B) (A) (B) (A) (B) (A) (B) (A) (B) (A)
                 (A) (B) (B) (A) (B) (A) (B) (A) (B) (A) (B) (A)
                 (B) (A) (B) (A) (B) (A) (B) (A) (B) (A) (B) (A)
                 (B) (A) (B) (B) (A) (A) (B) (A) (B) (A) (B) (A)
                 (B) (B) (A) (A) (B) (B) (A) (A) (B) (B) (A) (A)
                 (B)
 The electronic state is 1-A.
 Alpha  occ. eigenvalues --  -18.97599 -18.97599 -10.09853 -10.09840  -0.99845
 Alpha  occ. eigenvalues --   -0.98799  -0.69976  -0.56998  -0.49482  -0.46826
 Alpha  occ. eigenvalues --   -0.40677  -0.37885  -0.36625  -0.31143  -0.28271
 Alpha  occ. eigenvalues --   -0.22705  -0.22088
 Alpha virt. eigenvalues --    0.07575   0.09302   0.13835   0.15400   0.15710
 Alpha virt. eigenvalues --    0.17325   0.20647   0.24483   0.25248   0.54150
 Alpha virt. eigenvalues --    0.55928   0.56021   0.62701   0.63097   0.74002
 Alpha virt. eigenvalues --    0.77496   0.78688   0.81625   0.81782   0.84804
 Alpha virt. eigenvalues --    0.85710   0.90499   0.95446   0.98799   0.99180
 Alpha virt. eigenvalues --    0.99783   1.06459   1.19019   1.24092   1.36348
 Alpha virt. eigenvalues --    1.40389   1.48363   1.58235   1.59313   1.62143
 Alpha virt. eigenvalues --    1.64526   1.76542   1.84171   1.92094   1.93983
 Alpha virt. eigenvalues --    1.94443   1.96166   1.97998   2.01536   2.13699
 Alpha virt. eigenvalues --    2.16950   2.33640   2.37284   2.40179   2.41951
 Alpha virt. eigenvalues --    2.48366   2.64588   2.64928   2.68166   2.73250
 Alpha virt. eigenvalues --    2.75551   2.75806   2.80389   2.80515   2.87415
 Alpha virt. eigenvalues --    2.95151   3.07709   3.10952   3.32722   3.39169
 Alpha virt. eigenvalues --    3.51559   3.51619   3.54680   3.57671   4.00722
 Alpha virt. eigenvalues --    4.01051   4.40752   4.71507
          Condensed to atoms (all electrons):
              1          2          3          4          5          6
     1  C    4.796092   0.343607  -0.022905   0.007101   0.220771  -0.048492
     2  C    0.343607   4.796092   0.007101  -0.022905  -0.048492   0.220771
     3  H   -0.022905   0.007101   0.400858   0.000009   0.293755  -0.000128
     4  H    0.007101  -0.022905   0.000009   0.400858  -0.000128   0.293755
     5  O    0.220771  -0.048492   0.293755  -0.000128   8.187538   0.000792
     6  O   -0.048492   0.220771  -0.000128   0.293755   0.000792   8.187538
     7  H    0.374020  -0.037146  -0.005224  -0.000418  -0.041532   0.002701
     8  H    0.391781  -0.055587  -0.005074   0.000126  -0.037180   0.005887
     9  H   -0.037146   0.374020  -0.000418  -0.005224   0.002701  -0.041532
    10  H   -0.055587   0.391781   0.000126  -0.005074   0.005887  -0.037180
              7          8          9         10
     1  C    0.374020   0.391781  -0.037146  -0.055587
     2  C   -0.037146  -0.055587   0.374020   0.391781
     3  H   -0.005224  -0.005074  -0.000418   0.000126
     4  H   -0.000418   0.000126  -0.005224  -0.005074
     5  O   -0.041532  -0.037180   0.002701   0.005887
     6  O    0.002701   0.005887  -0.041532  -0.037180
     7  H    0.667506  -0.053640  -0.008859   0.005732
     8  H   -0.053640   0.622927   0.005732   0.000429
     9  H   -0.008859   0.005732   0.667506  -0.053640
    10  H    0.005732   0.000429  -0.053640   0.622927
 Mulliken atomic charges:
              1
     1  C    0.030756
     2  C    0.030756
     3  H    0.331901
     4  H    0.331901
     5  O   -0.584113
     6  O   -0.584113
     7  H    0.096859
     8  H    0.124598
     9  H    0.096859
    10  H    0.124598
 Sum of Mulliken atomic charges =   0.00000
 Mulliken charges with hydrogens summed into heavy atoms:
              1
     1  C    0.252212
     2  C    0.252212
     5  O   -0.252212
     6  O   -0.252212
 Sum of Mulliken charges with hydrogens summed into heavy atoms =   0.00000
 Electronic spatial extent (au):  <R**2>=            330.7747
 Charge=              0.0000 electrons
 Dipole moment (field-independent basis, Debye):
    X=              0.0000    Y=              0.0000    Z=              0.8983  Tot=              0.8983
 Quadrupole moment (field-independent basis, Debye-Ang):
   XX=            -25.8338   YY=            -17.0733   ZZ=            -25.2494
   XY=              5.4231   XZ=              0.0000   YZ=              0.0000
 Traceless Quadrupole moment (field-independent basis, Debye-Ang):
   XX=             -3.1150   YY=              5.6455   ZZ=             -2.5306
   XY=              5.4231   XZ=              0.0000   YZ=              0.0000
 Octapole moment (field-independent basis, Debye-Ang**2):
  XXX=              0.0000  YYY=              0.0000  ZZZ=             -1.0580  XYY=              0.0000
  XXY=              0.0000  XXZ=             -0.9749  XZZ=              0.0000  YZZ=              0.0000
  YYZ=             -2.3932  XYZ=             -1.2044
 Hexadecapole moment (field-independent basis, Debye-Ang**3):
 XXXX=            -62.6338 YYYY=           -167.6148 ZZZZ=            -46.6122 XXXY=              9.4292
 XXXZ=              0.0000 YYYX=             25.4685 YYYZ=              0.0000 ZZZX=              0.0000
 ZZZY=              0.0000 XXYY=            -59.4724 XXZZ=            -18.0355 YYZZ=            -53.7216
 XXYZ=              0.0000 YYXZ=              0.0000 ZZXY=              3.6960
 N-N= 1.314298841992D+02 E-N=-8.031176084430D+02  KE= 2.286781059759D+02
 Symmetry A    KE= 1.157506167810D+02
 Symmetry B    KE= 1.129274891949D+02
 1\1\GINC-NODE9\SP\RM06L\6-31G(d,p)\C2H6O2\WUCH\14-Sep-2010\0\\#M06L/6-
 31G** SP SCF=(qc,maxcycle=800) Guess=Indo MaxDisk=32GB\\12-ethanediol 
 Rotatable Bond SP Calculation on node9.bme.utexas.edu\\0,1\C,0,0.40314
 1,0.647792,0.260116\C,0,-0.403141,-0.647792,0.260116\H,0,0.07216,2.484
 222,-0.264829\H,0,-0.07216,-2.484222,-0.264829\O,0,-0.403141,1.665751,
 -0.275974\O,0,0.403141,-1.665751,-0.275974\H,0,0.730658,0.904314,1.264
 42\H,0,1.284821,0.489869,-0.352497\H,0,-0.730658,-0.904314,1.26442\H,0
 ,-1.284821,-0.489869,-0.352497\\Version=EM64L-G09RevA.02\State=1-A\HF=
 -230.212459\RMSD=0.000e+00\Dipole=0.,0.,0.3534153\Quadrupole=-2.315894
 6,4.1973219,-1.8814273,4.0319153,0.,0.\PG=C02 [X(C2H6O2)]\\@


 BREAD HAS TO MOLD IN ORDER TO GET PENICILLIN.
          -- JERRY BOATZ
 Job cpu time:  0 days  0 hours  5 minutes 14.5 seconds.
 File lengths (MBytes):  RWF=      5 Int=      0 D2E=      0 Chk=      1 Scr=      1
 Normal termination of Gaussian 09 at Tue Sep 14 14:07:12 2010.
