Self 0 0:      -6.27998927
Self 0 1:   61000.49740449
Self 0 2:   60506.11769448
Self 0 3:      33.99834988
Self 0 4:      36.21792664
Self 0 5:     -14.69131548
Self 0 6:     -14.19509072
Self 0 7:      -9.35138067
Self 0 8:      -8.26123833
Self 1 0:      -6.29256945
Self 1 1:      -2.34255206
Self 1 2:      -3.99722038
Self 1 3: 4196311.91497497
Self 1 4: 4186351.21294292
Self 1 5:      -3.92631119
Self 1 6:      -4.98245651
Self 1 7:      93.33320334
Self 1 8:      93.00485049
Self 2 0:       9.95097261
Self 2 1:     673.81733951
Self 2 2:     292.33991533
Self 2 3:      23.81245611
Self 2 4:       9.10023305
Self 2 5:     156.73191964
Pair 0 0, 1 0:      -0.15725076
Pair 0 0, 1 1:      -0.51394617
Pair 0 0, 1 2:      -0.41264456
Pair 0 0, 1 3:      -0.30166541
Pair 0 0, 1 4:      -0.31358342
Pair 0 0, 1 5:      -0.25691504
Pair 0 0, 1 6:      -0.13255603
Pair 0 0, 1 7:      -0.12615452
Pair 0 0, 1 8:      -0.12461270
Pair 0 0, 2 0:      -3.58570440
Pair 0 0, 2 1:      -2.23999454
Pair 0 0, 2 2:      -2.27261799
Pair 0 0, 2 3:      -3.31843082
Pair 0 0, 2 4:      -3.43728560
Pair 0 0, 2 5:      -6.10208779
Pair 0 1, 1 0:      -0.17082287
Pair 0 1, 1 1:      -0.33656979
Pair 0 1, 1 2:      -0.21575470
Pair 0 1, 1 3:      -0.32536635
Pair 0 1, 1 4:      -0.23871592
Pair 0 1, 1 5:      -0.31550197
Pair 0 1, 1 6:      -0.15583129
Pair 0 1, 1 7:      -0.10128936
Pair 0 1, 1 8:       0.04584083
Pair 0 1, 2 0:      -7.05390783
Pair 0 1, 2 1:      -5.76409565
Pair 0 1, 2 2:      -5.91721955
Pair 0 1, 2 3:      -5.58217549
Pair 0 1, 2 4:      -6.04028012
Pair 0 1, 2 5:     129.07561053
Pair 0 2, 1 0:      -0.15106151
Pair 0 2, 1 1:      -0.32325418
Pair 0 2, 1 2:      -0.19642361
Pair 0 2, 1 3:      -0.48400137
Pair 0 2, 1 4:      -0.40274377
Pair 0 2, 1 5:      -0.29820781
Pair 0 2, 1 6:      -0.13517774
Pair 0 2, 1 7:      -0.09153135
Pair 0 2, 1 8:       0.04936935
Pair 0 2, 2 0:      -6.65293349
Pair 0 2, 2 1:      -4.52856492
Pair 0 2, 2 2:      -4.60032471
Pair 0 2, 2 3:      -4.72228472
Pair 0 2, 2 4:      -5.06432055
Pair 0 2, 2 5:     133.76979060
Pair 0 3, 1 0:      -0.11406724
Pair 0 3, 1 1:      -1.75642289
Pair 0 3, 1 2:      -1.42659833
Pair 0 3, 1 3:      -0.22771278
Pair 0 3, 1 4:      -0.32935632
Pair 0 3, 1 5:      -0.20024383
Pair 0 3, 1 6:      -0.08935026
Pair 0 3, 1 7:      -0.08200841
Pair 0 3, 1 8:      -0.03531172
Pair 0 3, 2 0:      -6.46475557
Pair 0 3, 2 1:      -5.10822657
Pair 0 3, 2 2:      -5.15180050
Pair 0 3, 2 3:      -7.07876581
Pair 0 3, 2 4:      -6.53741662
Pair 0 3, 2 5:      -9.82587258
Pair 0 4, 1 0:      -0.24609136
Pair 0 4, 1 1:      -2.26131645
Pair 0 4, 1 2:      -2.45071060
Pair 0 4, 1 3:      -0.22889074
Pair 0 4, 1 4:      -0.32456267
Pair 0 4, 1 5:      -0.28715142
Pair 0 4, 1 6:      -0.23968246
Pair 0 4, 1 7:      -0.20430830
Pair 0 4, 1 8:      -0.20425317
Pair 0 4, 2 0:      -3.84363897
Pair 0 4, 2 1:      -3.30189967
Pair 0 4, 2 2:      -3.28005302
Pair 0 4, 2 3:      -3.78265141
Pair 0 4, 2 4:      -3.77493983
Pair 0 4, 2 5:      -8.38487771
Pair 0 5, 1 0:      -0.14440406
Pair 0 5, 1 1:      -0.55610887
Pair 0 5, 1 2:      -0.42414521
Pair 0 5, 1 3:      -0.29894658
Pair 0 5, 1 4:      -0.31810677
Pair 0 5, 1 5:      -0.25733941
Pair 0 5, 1 6:      -0.11690769
Pair 0 5, 1 7:      -0.11287798
Pair 0 5, 1 8:      -0.09309183
Pair 0 5, 2 0:      -3.35332410
Pair 0 5, 2 1:      -2.14224715
Pair 0 5, 2 2:      -2.16303415
Pair 0 5, 2 3:      -3.13966015
Pair 0 5, 2 4:      -3.23931430
Pair 0 5, 2 5:      -5.43220189
Pair 0 6, 1 0:      -0.14829949
Pair 0 6, 1 1:      -0.54870921
Pair 0 6, 1 2:      -0.49024439
Pair 0 6, 1 3:      -0.28857053
Pair 0 6, 1 4:      -0.30860155
Pair 0 6, 1 5:      -0.24257309
Pair 0 6, 1 6:      -0.12679006
Pair 0 6, 1 7:      -0.11043759
Pair 0 6, 1 8:      -0.13118681
Pair 0 6, 2 0:      -3.29824008
Pair 0 6, 2 1:      -2.08391878
Pair 0 6, 2 2:      -2.10947685
Pair 0 6, 2 3:      -3.13679280
Pair 0 6, 2 4:      -3.21219555
Pair 0 6, 2 5:      -5.09264411
Pair 0 7, 1 0:      -0.16109693
Pair 0 7, 1 1:      -0.52335258
Pair 0 7, 1 2:      -0.38998485
Pair 0 7, 1 3:      -0.29735924
Pair 0 7, 1 4:      -0.32443196
Pair 0 7, 1 5:      -0.25655424
Pair 0 7, 1 6:      -0.14157955
Pair 0 7, 1 7:      -0.13075788
Pair 0 7, 1 8:      -0.13128747
Pair 0 7, 2 0:      -3.49848349
Pair 0 7, 2 1:      -2.19719557
Pair 0 7, 2 2:      -2.21600274
Pair 0 7, 2 3:      -3.25447623
Pair 0 7, 2 4:      -3.38534090
Pair 0 7, 2 5:      -5.72069984
Pair 0 8, 1 0:      -0.20892470
Pair 0 8, 1 1:      -0.51735155
Pair 0 8, 1 2:      -0.45989675
Pair 0 8, 1 3:      -0.27299678
Pair 0 8, 1 4:      -0.29574041
Pair 0 8, 1 5:      -0.26916474
Pair 0 8, 1 6:      -0.20122567
Pair 0 8, 1 7:      -0.17409242
Pair 0 8, 1 8:      -0.18398610
Pair 0 8, 2 0:      -3.31129859
Pair 0 8, 2 1:      -2.14497273
Pair 0 8, 2 2:      -2.16657401
Pair 0 8, 2 3:      -3.10675394
Pair 0 8, 2 4:      -3.21841263
Pair 0 8, 2 5:      -5.37375698
Pair 1 0, 2 0:      -3.28562095
Pair 1 0, 2 1:      -5.55340107
Pair 1 0, 2 2:      -5.32496575
Pair 1 0, 2 3:      -3.39698062
Pair 1 0, 2 4:      -3.34622150
Pair 1 0, 2 5:      -2.97366233
Pair 1 1, 2 0:      -3.40370240
Pair 1 1, 2 1:      -4.38020473
Pair 1 1, 2 2:      -4.25033535
Pair 1 1, 2 3:      -3.57612842
Pair 1 1, 2 4:      -3.40836263
Pair 1 1, 2 5:      -2.72973605
Pair 1 2, 2 0:      -4.39666918
Pair 1 2, 2 1:      -5.05781735
Pair 1 2, 2 2:      -4.96428083
Pair 1 2, 2 3:      -4.72165626
Pair 1 2, 2 4:      -4.43600302
Pair 1 2, 2 5:      -3.09069995
Pair 1 3, 2 0:      -0.44092767
Pair 1 3, 2 1:       0.19692353
Pair 1 3, 2 2:       0.00512920
Pair 1 3, 2 3:      -0.56759589
Pair 1 3, 2 4:      -0.32880245
Pair 1 3, 2 5:       0.01038075
Pair 1 4, 2 0:      -0.11747150
Pair 1 4, 2 1:       2.43018947
Pair 1 4, 2 2:       2.44226278
Pair 1 4, 2 3:      -0.18354383
Pair 1 4, 2 4:       0.13267703
Pair 1 4, 2 5:       0.16143092
Pair 1 5, 2 0:      -3.04220179
Pair 1 5, 2 1:      -4.92259592
Pair 1 5, 2 2:      -4.70029821
Pair 1 5, 2 3:      -3.15064414
Pair 1 5, 2 4:      -3.08559702
Pair 1 5, 2 5:      -2.76764962
Pair 1 6, 2 0:      -3.31960948
Pair 1 6, 2 1:      -5.61687980
Pair 1 6, 2 2:      -5.40091391
Pair 1 6, 2 3:      -3.43610409
Pair 1 6, 2 4:      -3.38567847
Pair 1 6, 2 5:      -3.02160783
Pair 1 7, 2 0:      -3.01614371
Pair 1 7, 2 1:      -4.34891158
Pair 1 7, 2 2:      -4.15320423
Pair 1 7, 2 3:      -3.11784817
Pair 1 7, 2 4:      -3.02562671
Pair 1 7, 2 5:      -2.89266519
Pair 1 8, 2 0:      -3.52139031
Pair 1 8, 2 1:      -4.98839576
Pair 1 8, 2 2:      -4.80367647
Pair 1 8, 2 3:      -3.59099956
Pair 1 8, 2 4:      -3.50318279
Pair 1 8, 2 5:      -3.89125650