Self 0 0:     -12.19944627
Self 0 1:   60994.43288716
Self 0 2:   60500.07373306
Self 0 3:      28.04727309
Self 0 4:      30.26137062
Self 0 5:     -20.61482565
Self 0 6:     -20.12437172
Self 0 7:     -15.28764663
Self 0 8:     -14.20573079
Self 1 0:      -4.75317245
Self 1 1:      -0.80155046
Self 1 2:      -2.45115148
Self 1 3: 4196313.46173108
Self 1 4: 4186352.75702257
Self 1 5:      -2.38632482
Self 1 6:      -3.44394276
Self 1 7:      94.87698386
Self 1 8:      94.53105385
Self 2 0:       4.85823224
Self 2 1:    1161.57263680
Self 2 2:    1161.57263680
Self 2 3:      18.73772394
Self 2 4:      18.73772394
Self 2 5:     227.91981333
Pair 0 0, 1 0:      -0.15503713
Pair 0 0, 1 1:      -0.51103505
Pair 0 0, 1 2:      -0.40973127
Pair 0 0, 1 3:      -0.29941418
Pair 0 0, 1 4:      -0.31100471
Pair 0 0, 1 5:      -0.25469856
Pair 0 0, 1 6:      -0.13036582
Pair 0 0, 1 7:      -0.12324267
Pair 0 0, 1 8:      -0.12084738
Pair 0 0, 2 0:      -3.59579508
Pair 0 0, 2 1:      -2.23577523
Pair 0 0, 2 2:      -2.23577523
Pair 0 0, 2 3:      -3.32523999
Pair 0 0, 2 4:      -3.32523999
Pair 0 0, 2 5:      -6.01567888
Pair 0 1, 1 0:      -0.16528632
Pair 0 1, 1 1:      -0.32805968
Pair 0 1, 1 2:      -0.20812622
Pair 0 1, 1 3:      -0.31869626
Pair 0 1, 1 4:      -0.23083042
Pair 0 1, 1 5:      -0.31037093
Pair 0 1, 1 6:      -0.15065370
Pair 0 1, 1 7:      -0.09314585
Pair 0 1, 1 8:       0.05674816
Pair 0 1, 2 0:      -7.05290967
Pair 0 1, 2 1:      -5.75381446
Pair 0 1, 2 2:      -5.75381446
Pair 0 1, 2 3:      -5.58279835
Pair 0 1, 2 4:      -5.58279835
Pair 0 1, 2 5:     107.96423134
Pair 0 2, 1 0:      -0.14524704
Pair 0 2, 1 1:      -0.31447134
Pair 0 2, 1 2:      -0.18852231
Pair 0 2, 1 3:      -0.47699815
Pair 0 2, 1 4:      -0.39446978
Pair 0 2, 1 5:      -0.29283837
Pair 0 2, 1 6:      -0.12970809
Pair 0 2, 1 7:      -0.08311407
Pair 0 2, 1 8:       0.06064333
Pair 0 2, 2 0:      -6.65495083
Pair 0 2, 2 1:      -4.52228345
Pair 0 2, 2 2:      -4.52228345
Pair 0 2, 2 3:      -4.72631424
Pair 0 2, 2 4:      -4.72631424
Pair 0 2, 2 5:     112.54857234
Pair 0 3, 1 0:      -0.11141028
Pair 0 3, 1 1:      -1.75393253
Pair 0 3, 1 2:      -1.42491466
Pair 0 3, 1 3:      -0.22543700
Pair 0 3, 1 4:      -0.32639241
Pair 0 3, 1 5:      -0.19755393
Pair 0 3, 1 6:      -0.08658611
Pair 0 3, 1 7:      -0.07847401
Pair 0 3, 1 8:      -0.03082649
Pair 0 3, 2 0:      -6.47098103
Pair 0 3, 2 1:      -5.07301835
Pair 0 3, 2 2:      -5.07301835
Pair 0 3, 2 3:      -7.07635845
Pair 0 3, 2 4:      -7.07635845
Pair 0 3, 2 5:      -9.90926010
Pair 0 4, 1 0:      -0.24360899
Pair 0 4, 1 1:      -2.25905410
Pair 0 4, 1 2:      -2.44925880
Pair 0 4, 1 3:      -0.22653924
Pair 0 4, 1 4:      -0.32152642
Pair 0 4, 1 5:      -0.28468082
Pair 0 4, 1 6:      -0.23713765
Pair 0 4, 1 7:      -0.20095116
Pair 0 4, 1 8:      -0.19994709
Pair 0 4, 2 0:      -3.84968718
Pair 0 4, 2 1:      -3.30707314
Pair 0 4, 2 2:      -3.30707314
Pair 0 4, 2 3:      -3.78238986
Pair 0 4, 2 4:      -3.78238986
Pair 0 4, 2 5:      -8.47407289
Pair 0 5, 1 0:      -0.14222047
Pair 0 5, 1 1:      -0.55328437
Pair 0 5, 1 2:      -0.42126214
Pair 0 5, 1 3:      -0.29680623
Pair 0 5, 1 4:      -0.31564196
Pair 0 5, 1 5:      -0.25512850
Pair 0 5, 1 6:      -0.11471032
Pair 0 5, 1 7:      -0.11001199
Pair 0 5, 1 8:      -0.08941269
Pair 0 5, 2 0:      -3.36231558
Pair 0 5, 2 1:      -2.14215146
Pair 0 5, 2 2:      -2.14215146
Pair 0 5, 2 3:      -3.14553434
Pair 0 5, 2 4:      -3.14553434
Pair 0 5, 2 5:      -5.37069200
Pair 0 6, 1 0:      -0.14627083
Pair 0 6, 1 1:      -0.54600741
Pair 0 6, 1 2:      -0.48748420
Pair 0 6, 1 3:      -0.28652331
Pair 0 6, 1 4:      -0.30622905
Pair 0 6, 1 5:      -0.24055348
Pair 0 6, 1 6:      -0.12478359
Pair 0 6, 1 7:      -0.10781499
Pair 0 6, 1 8:      -0.12775247
Pair 0 6, 2 0:      -3.30706025
Pair 0 6, 2 1:      -2.08224694
Pair 0 6, 2 2:      -2.08224694
Pair 0 6, 2 3:      -3.14249427
Pair 0 6, 2 4:      -3.14249427
Pair 0 6, 2 5:      -5.02593108
Pair 0 7, 1 0:      -0.15885350
Pair 0 7, 1 1:      -0.52047560
Pair 0 7, 1 2:      -0.38699231
Pair 0 7, 1 3:      -0.29523716
Pair 0 7, 1 4:      -0.32198084
Pair 0 7, 1 5:      -0.25428586
Pair 0 7, 1 6:      -0.13930002
Pair 0 7, 1 7:      -0.12788200
Pair 0 7, 1 8:      -0.12757727
Pair 0 7, 2 0:      -3.50738426
Pair 0 7, 2 1:      -2.19672753
Pair 0 7, 2 2:      -2.19672753
Pair 0 7, 2 3:      -3.25999114
Pair 0 7, 2 4:      -3.25999114
Pair 0 7, 2 5:      -5.66398761
Pair 0 8, 1 0:      -0.20666139
Pair 0 8, 1 1:      -0.51441650
Pair 0 8, 1 2:      -0.45684685
Pair 0 8, 1 3:      -0.27086506
Pair 0 8, 1 4:      -0.29327878
Pair 0 8, 1 5:      -0.26688845
Pair 0 8, 1 6:      -0.19893900
Pair 0 8, 1 7:      -0.17122876
Pair 0 8, 1 8:      -0.18028758
Pair 0 8, 2 0:      -3.31993283
Pair 0 8, 2 1:      -2.14610343
Pair 0 8, 2 2:      -2.14610343
Pair 0 8, 2 3:      -3.11217831
Pair 0 8, 2 4:      -3.11217831
Pair 0 8, 2 5:      -5.30927871
Pair 1 0, 2 0:      -3.28937210
Pair 1 0, 2 1:      -5.69713839
Pair 1 0, 2 2:      -5.69713839
Pair 1 0, 2 3:      -3.40067358
Pair 1 0, 2 4:      -3.40067358
Pair 1 0, 2 5:      -2.90208753
Pair 1 1, 2 0:      -3.40556465
Pair 1 1, 2 1:      -4.41909857
Pair 1 1, 2 2:      -4.41909857
Pair 1 1, 2 3:      -3.57653659
Pair 1 1, 2 4:      -3.57653659
Pair 1 1, 2 5:      -2.65590858
Pair 1 2, 2 0:      -4.39828093
Pair 1 2, 2 1:      -5.07405294
Pair 1 2, 2 2:      -5.07405294
Pair 1 2, 2 3:      -4.72133557
Pair 1 2, 2 4:      -4.72133557
Pair 1 2, 2 5:      -3.01624204
Pair 1 3, 2 0:      -0.44566440
Pair 1 3, 2 1:       0.40293217
Pair 1 3, 2 2:       0.40293217
Pair 1 3, 2 3:      -0.56983227
Pair 1 3, 2 4:      -0.56983227
Pair 1 3, 2 5:       0.05255880
Pair 1 4, 2 0:      -0.12236430
Pair 1 4, 2 1:       2.45217289
Pair 1 4, 2 2:       2.45217289
Pair 1 4, 2 3:      -0.18559851
Pair 1 4, 2 4:      -0.18559851
Pair 1 4, 2 5:       0.21041384
Pair 1 5, 2 0:      -3.04667356
Pair 1 5, 2 1:      -5.06447186
Pair 1 5, 2 2:      -5.06447186
Pair 1 5, 2 3:      -3.15467882
Pair 1 5, 2 4:      -3.15467882
Pair 1 5, 2 5:      -2.71282785
Pair 1 6, 2 0:      -3.32382262
Pair 1 6, 2 1:      -5.76263060
Pair 1 6, 2 2:      -5.76263060
Pair 1 6, 2 3:      -3.44029056
Pair 1 6, 2 4:      -3.44029056
Pair 1 6, 2 5:      -2.94784898
Pair 1 7, 2 0:      -3.02141572
Pair 1 7, 2 1:      -4.47674718
Pair 1 7, 2 2:      -4.47674718
Pair 1 7, 2 3:      -3.12216367
Pair 1 7, 2 4:      -3.12216367
Pair 1 7, 2 5:      -2.82699412
Pair 1 8, 2 0:      -3.52688934
Pair 1 8, 2 1:      -5.11979518
Pair 1 8, 2 2:      -5.11979518
Pair 1 8, 2 3:      -3.59549814
Pair 1 8, 2 4:      -3.59549814
Pair 1 8, 2 5:      -3.81461243
