 Box 3: 0,1,0
Self 0 0:      37.11062130
Self 0 1:      71.14714138
Self 0 2:     248.78941727
Self 0 3:      39.96015197
Self 0 4:      38.88981953
Self 0 5:      39.14362782
Self 0 6:      37.15986386
Self 0 7:      36.07496638
Self 0 8:      37.30894661
Self 1 0:       0.23977367
Self 1 1:       7.41217063
Self 1 2:       4.55564586
Self 1 3:      -2.78662522
Self 1 4:       0.36410112
Self 1 5:       0.63493003
Self 1 6:       2.00616913
Self 1 7:      26.68982921
Self 1 8:      31.00319097
Self 1 9:      32.75443182
Self 1 10:      33.42967378
Self 1 11:      27.20035576
Self 1 12:      35.29029009
Self 1 13:      15.91713987
Self 1 14:      11.79702067
Self 1 15:      12.48004428
Self 1 16:      15.31626667
Self 1 17:      14.59997984
Self 1 18:      18.24931593
Pair 0 0, 1 0:      -3.06407861
Pair 0 0, 1 1:      -4.10298621
Pair 0 0, 1 2:      -3.04427034
Pair 0 0, 1 3:      -2.48268361
Pair 0 0, 1 4:      -3.06875448
Pair 0 0, 1 5:      -4.51194658
Pair 0 0, 1 6:      -3.87756732
Pair 0 0, 1 13:      -3.95587682
Pair 0 0, 1 14:      -3.83251435
Pair 0 0, 1 15:      -2.36884250
Pair 0 0, 1 16:      -1.59638520
Pair 0 0, 1 17:      -2.59712446
Pair 0 0, 1 18:      -1.65548015
Pair 0 3, 1 0:      -3.65279036
Pair 0 3, 1 1:      -4.71014418
Pair 0 3, 1 2:      -3.60736631
Pair 0 3, 1 3:      -2.98284932
Pair 0 3, 1 4:      -3.67014753
Pair 0 3, 1 5:      -5.03872224
Pair 0 3, 1 6:      -4.46550994
Pair 0 3, 1 13:      -4.68025259
Pair 0 3, 1 14:      -4.05282690
Pair 0 3, 1 15:      -2.35919146
Pair 0 3, 1 16:      -1.64806548
Pair 0 3, 1 17:      -3.17149500
Pair 0 3, 1 18:      -1.87853089
Pair 0 4, 1 0:      -4.25256056
Pair 0 4, 1 1:      -4.71555273
Pair 0 4, 1 2:      -3.87152297
Pair 0 4, 1 3:      -3.35074165
Pair 0 4, 1 4:      -4.31253491
Pair 0 4, 1 5:      -5.15800656
Pair 0 4, 1 6:      -5.13348443
Pair 0 4, 1 13:      -3.39246932
Pair 0 4, 1 14:      -3.17020205
Pair 0 4, 1 15:      -2.13486232
Pair 0 4, 1 16:      -1.19838603
Pair 0 4, 1 17:      -2.24469010
Pair 0 4, 1 18:      -1.15184445
Pair 0 5, 1 0:      17.59827195
Pair 0 5, 1 1:      26.75031102
Pair 0 5, 1 2:      26.90946043
Pair 0 5, 1 3:      27.90507725
Pair 0 5, 1 4:      25.56812656
Pair 0 5, 1 5:      25.94780462
Pair 0 5, 1 6:      23.91999130
Pair 0 5, 1 13:       0.61513541
Pair 0 5, 1 14:       2.65641450
Pair 0 5, 1 15:       9.27366449
Pair 0 5, 1 16:      12.45435867
Pair 0 5, 1 17:       2.85415776
Pair 0 5, 1 18:      11.18831188
Pair 0 6, 1 0:      -3.11050166
Pair 0 6, 1 1:      -4.52935521
Pair 0 6, 1 2:      -3.02634311
Pair 0 6, 1 3:      -2.41100677
Pair 0 6, 1 4:      -3.12392166
Pair 0 6, 1 5:      -5.84388640
Pair 0 6, 1 6:      -4.56840377
Pair 0 6, 1 13:      -4.01309095
Pair 0 6, 1 14:      -4.23482252
Pair 0 6, 1 15:      -3.36113671
Pair 0 6, 1 16:      -2.34969889
Pair 0 6, 1 17:      -2.82650097
Pair 0 6, 1 18:      -2.07580371
Pair 0 7, 1 0:      -3.49863918
Pair 0 7, 1 1:      -4.15575702
Pair 0 7, 1 2:      -3.22585079
Pair 0 7, 1 3:      -2.74681970
Pair 0 7, 1 4:      -3.53549543
Pair 0 7, 1 5:      -4.74977291
Pair 0 7, 1 6:      -4.43875539
Pair 0 7, 1 13:      -3.03447555
Pair 0 7, 1 14:      -3.49033205
Pair 0 7, 1 15:      -2.48486673
Pair 0 7, 1 16:      -1.34491524
Pair 0 7, 1 17:      -1.76125291
Pair 0 7, 1 18:      -1.03297254
Pair 0 8, 1 0:      -3.00467708
Pair 0 8, 1 1:      -4.12233902
Pair 0 8, 1 2:      -3.01318709
Pair 0 8, 1 3:      -2.44610444
Pair 0 8, 1 4:      -3.00698344
Pair 0 8, 1 5:      -4.58365377
Pair 0 8, 1 6:      -3.86210267
Pair 0 8, 1 13:      -4.05050508
Pair 0 8, 1 14:      -4.03524302
Pair 0 8, 1 15:      -2.51712356
Pair 0 8, 1 16:      -1.69966394
Pair 0 8, 1 17:      -2.59489331
Pair 0 8, 1 18:      -1.70536818
 Box 4: 0,1,1
Self 0 0:      34.62793769
Self 0 1:      76.89152051
Self 0 2:     258.11247203
Self 0 3:      36.97730265
Self 0 4:      35.53907788
Self 0 5:      67.04870508
Self 0 6:      34.74885708
Self 0 7:      33.32814668
Self 0 8:      34.86284217
 Box 5: 1,0,0
Self 0 0:       5.23345621
Self 0 1:      18.90644414
Self 0 2:      19.03775948
Self 0 3:      18.48557702
Self 0 4:       8.85232251
Self 0 5:    1248.78641257
Self 0 6:   16590.63122255
Self 0 7:    5942.97361969
Self 1 0:     -19.67551972
Self 1 1:     -17.28100739
Self 1 2:     -12.20745347
Self 1 3:      -5.86908937
Self 1 4:      -5.64411032
Self 1 5:      23.75836279
Self 1 6:      11.73077449
Self 1 7:      -0.42566924
Self 1 8:       2.87335918
Pair 0 0, 1 0:       0.38403958
Pair 0 0, 1 1:       0.47516995
Pair 0 0, 1 2:       0.43281157
Pair 0 0, 1 3:       0.12090192
Pair 0 0, 1 4:       0.25681307
Pair 0 0, 1 7:       0.11286999
Pair 0 0, 1 8:       0.31790824
Pair 0 1, 1 0:       0.18677704
Pair 0 1, 1 1:       0.19184417
Pair 0 1, 1 2:       0.18558917
Pair 0 1, 1 3:       0.08747988
Pair 0 1, 1 4:       0.16195346
Pair 0 1, 1 7:      -0.37066101
Pair 0 1, 1 8:      -0.15069519
Pair 0 2, 1 0:       0.22612903
Pair 0 2, 1 1:       0.21508815
Pair 0 2, 1 2:       0.27985183
Pair 0 2, 1 3:       0.44283343
Pair 0 2, 1 4:       0.55581667
Pair 0 2, 1 7:       0.12622806
Pair 0 2, 1 8:       0.35026919
Pair 0 3, 1 0:       0.38002854
Pair 0 3, 1 1:       0.50604038
Pair 0 3, 1 2:       0.44552902
Pair 0 3, 1 3:      -0.03692182
Pair 0 3, 1 4:       0.13195501
Pair 0 3, 1 7:      -0.02095175
Pair 0 3, 1 8:       0.21161199
Pair 0 4, 1 0:      -0.04188708
Pair 0 4, 1 1:      -0.03779592
Pair 0 4, 1 2:      -0.02342298
Pair 0 4, 1 3:      -0.20242842
Pair 0 4, 1 4:      -0.10644523
Pair 0 4, 1 7:       0.11610607
Pair 0 4, 1 8:       0.27441109
 Box 7: 1,1,0
Self 0 0:      -4.71127638
Self 0 1:   61001.94422921
Self 0 2:   60507.72879320
Self 0 3:      37.19574626
Self 0 4:      37.72191433
Self 0 5:     -13.16063208
Self 0 6:     -12.58684957
Self 0 7:      -7.71457521
Self 0 8:      -6.73746537
Self 1 0:      -4.47729623
Self 1 1:      -0.34807202
Self 1 2:      -1.02470764
Self 1 3: 4196313.41228246
Self 1 4: 4186351.88882169
Self 1 5:      -2.18769914
Self 1 6:      -3.17741587
Self 1 7:      95.04296760
Self 1 8:      94.76848272
Self 2 0:     -25.92647094
Self 2 1:      47.31911245
Self 2 2:      84.12130446
Self 2 3:     -11.21086220
Self 2 4:     -28.45922244
Self 2 5:     134.09442506
Self 3 0:       0.91841355
Self 3 1:       2.53054831
Self 3 2:      -5.50986309
Self 3 3:       2.94240202
Self 3 4:       4.09134112
Self 3 5:       3.27535005
Self 3 6:      -9.52467044
Self 3 7:       0.04868456
Self 3 8:       0.02218937
Self 4 0:       1.89218079
Self 4 1:       7.19637364
Self 4 2:       6.05586396
Self 4 3:       2.98506671
Self 4 4:       2.21632756
Self 4 5:       4.57445673
Self 4 6:       5.05067521
Self 4 7:      15.69691155
Self 4 8:      20.14846641
Self 4 9:      21.03710043
Self 4 10:      21.53902277
Self 4 11:      14.43173711
Self 4 12:      23.42193186
Self 4 13:      10.67270927
Self 4 14:       8.79351110
Self 4 15:       8.91072734
Self 4 16:       8.82912669
Self 4 17:       8.22785006
Self 4 18:      11.09771712
Self 5 0:       4.86259300
Self 5 1:       7.01347715
Self 5 2:       1.68913608
Self 5 3:       3.77633817
Self 5 4:       5.39215380
Self 5 5:       7.81883686
Self 5 6:       8.13403749
Self 5 7:      16.81040767
Self 5 8:       9.75995421
Self 5 9:       7.91687495
Self 5 10:       8.01261934
Self 5 11:       4.94261934
Self 5 12:       7.52377398
Self 5 13:       9.86006046
Self 5 14:       6.05907742
Self 5 15:       8.13933304
Self 5 16:       9.87527683
Self 5 17:       9.35787094
Self 5 18:      12.67046759
Pair 0 0, 1 0:      -0.17804933
Pair 0 0, 1 1:      -0.49724150
Pair 0 0, 1 2:      -0.39902187
Pair 0 0, 1 5:      -0.27645721
Pair 0 0, 1 6:      -0.15502668
Pair 0 0, 2 0:      -3.48401194
Pair 0 0, 2 3:      -3.22177354
Pair 0 0, 2 4:      -3.34427817
Pair 0 5, 1 0:      -0.16681186
Pair 0 5, 1 1:      -0.54624251
Pair 0 5, 1 2:      -0.41762870
Pair 0 5, 1 5:      -0.27812157
Pair 0 5, 1 6:      -0.14100571
Pair 0 5, 2 0:      -3.25504791
Pair 0 5, 2 3:      -3.04617013
Pair 0 5, 2 4:      -3.14834405
Pair 0 6, 1 0:      -0.17295983
Pair 0 6, 1 1:      -0.53180382
Pair 0 6, 1 2:      -0.47633466
Pair 0 6, 1 5:      -0.26580825
Pair 0 6, 1 6:      -0.15331410
Pair 0 6, 2 0:      -3.20231035
Pair 0 6, 2 3:      -3.04291438
Pair 0 6, 2 4:      -3.12371553
Pair 0 7, 1 0:      -0.18091869
Pair 0 7, 1 1:      -0.51139512
Pair 0 7, 1 2:      -0.38096607
Pair 0 7, 1 5:      -0.27455297
Pair 0 7, 1 6:      -0.16303326
Pair 0 7, 2 0:      -3.40313922
Pair 0 7, 2 3:      -3.16541917
Pair 0 7, 2 4:      -3.29858945
Pair 0 8, 1 0:      -0.22404207
Pair 0 8, 1 1:      -0.49057751
Pair 0 8, 1 2:      -0.43597021
Pair 0 8, 1 5:      -0.28272663
Pair 0 8, 1 6:      -0.21788771
Pair 0 8, 2 0:      -3.20747433
Pair 0 8, 2 3:      -3.00523797
Pair 0 8, 2 4:      -3.12128622
Pair 1 0, 2 0:      -3.15200938
Pair 1 0, 2 3:      -3.23852640
Pair 1 0, 2 4:      -3.21767333
Pair 1 0, 5 0:       0.21753738
Pair 1 0, 5 1:       0.33701713
Pair 1 0, 5 2:       0.22934883
Pair 1 0, 5 3:       0.18386147
Pair 1 0, 5 4:       0.22042054
Pair 1 0, 5 5:       0.37739265
Pair 1 0, 5 6:       0.29842687
Pair 1 0, 5 7:       0.28952109
Pair 1 0, 5 8:       0.39651552
Pair 1 0, 5 9:       0.21258770
Pair 1 0, 5 10:       0.09807437
Pair 1 0, 5 11:       0.09074607
Pair 1 0, 5 12:       0.06099743
Pair 1 0, 5 13:       0.36640702
Pair 1 0, 5 14:       0.18171311
Pair 1 0, 5 15:      -0.00588312
Pair 1 0, 5 16:      -0.03660080
Pair 1 0, 5 17:       0.25385514
Pair 1 0, 5 18:       0.03876078
Pair 1 1, 2 0:      -3.16349974
Pair 1 1, 2 3:      -3.29944875
Pair 1 1, 2 4:      -3.17998957
Pair 1 1, 5 0:       0.07271881
Pair 1 1, 5 1:       0.12162411
Pair 1 1, 5 2:       0.06908734
Pair 1 1, 5 3:       0.06823095
Pair 1 1, 5 4:       0.07694174
Pair 1 1, 5 5:       0.17413983
Pair 1 1, 5 6:       0.12683518
Pair 1 1, 5 7:       0.15918036
Pair 1 1, 5 8:       0.12588679
Pair 1 1, 5 9:       0.09488615
Pair 1 1, 5 10:       0.09373575
Pair 1 1, 5 11:       0.12714440
Pair 1 1, 5 12:       0.09692061
Pair 1 1, 5 13:       0.19235871
Pair 1 1, 5 14:       0.18124681
Pair 1 1, 5 15:       0.07212265
Pair 1 1, 5 16:       0.03293883
Pair 1 1, 5 17:       0.08178213
Pair 1 1, 5 18:       0.03510824
Pair 1 2, 2 0:      -4.20438234
Pair 1 2, 2 3:      -4.48811970
Pair 1 2, 2 4:      -4.26043068
Pair 1 2, 5 0:       0.06973478
Pair 1 2, 5 1:       0.14065383
Pair 1 2, 5 2:       0.05471146
Pair 1 2, 5 3:       0.05481156
Pair 1 2, 5 4:       0.07947378
Pair 1 2, 5 5:       0.21927347
Pair 1 2, 5 6:       0.15373311
Pair 1 2, 5 7:       0.17915509
Pair 1 2, 5 8:       0.16037248
Pair 1 2, 5 9:       0.13323401
Pair 1 2, 5 10:       0.13502838
Pair 1 2, 5 11:       0.14372342
Pair 1 2, 5 12:       0.13218485
Pair 1 2, 5 13:       0.21203805
Pair 1 2, 5 14:       0.22132763
Pair 1 2, 5 15:       0.09306358
Pair 1 2, 5 16:       0.02707002
Pair 1 2, 5 17:       0.07145852
Pair 1 2, 5 18:       0.01717921
Pair 1 5, 2 0:      -2.93747273
Pair 1 5, 2 3:      -3.02864134
Pair 1 5, 2 4:      -2.99266341
Pair 1 5, 5 0:       0.14189556
Pair 1 5, 5 1:       0.25767956
Pair 1 5, 5 2:       0.16234881
Pair 1 5, 5 3:       0.12254802
Pair 1 5, 5 4:       0.14659784
Pair 1 5, 5 5:       0.29693503
Pair 1 5, 5 6:       0.21726895
Pair 1 5, 5 7:       0.26861311
Pair 1 5, 5 8:       0.31369936
Pair 1 5, 5 9:       0.17781739
Pair 1 5, 5 10:       0.12121889
Pair 1 5, 5 11:       0.11803727
Pair 1 5, 5 12:       0.10037306
Pair 1 5, 5 13:       0.32847723
Pair 1 5, 5 14:       0.19792022
Pair 1 5, 5 15:       0.01533256
Pair 1 5, 5 16:      -0.03212976
Pair 1 5, 5 17:       0.17548296
Pair 1 5, 5 18:       0.00275273
Pair 1 6, 2 0:      -3.18721142
Pair 1 6, 2 3:      -3.27729319
Pair 1 6, 2 4:      -3.25790736
Pair 1 6, 5 0:       0.22949168
Pair 1 6, 5 1:       0.36267778
Pair 1 6, 5 2:       0.25828212
Pair 1 6, 5 3:       0.19829246
Pair 1 6, 5 4:       0.22880774
Pair 1 6, 5 5:       0.39145995
Pair 1 6, 5 6:       0.30818658
Pair 1 6, 5 7:       0.32148679
Pair 1 6, 5 8:       0.40030628
Pair 1 6, 5 9:       0.19975307
Pair 1 6, 5 10:       0.08081981
Pair 1 6, 5 11:       0.10793181
Pair 1 6, 5 12:       0.04716266
Pair 1 6, 5 13:       0.38454794
Pair 1 6, 5 14:       0.20186836
Pair 1 6, 5 15:       0.00778225
Pair 1 6, 5 16:      -0.01854526
Pair 1 6, 5 17:       0.26800304
Pair 1 6, 5 18:       0.06000884
Pair 2 0, 3 0:      41.62355798
Pair 2 0, 3 1:      75.24944459
Pair 2 0, 3 2:     262.58564590
Pair 2 0, 3 3:      42.61838274
Pair 2 0, 3 4:      40.56303364
Pair 2 0, 3 5:      43.08152799
Pair 2 0, 3 6:      53.70092893
Pair 2 0, 3 7:      41.75665396
Pair 2 0, 3 8:      42.85640605
Pair 2 0, 4 0:      -3.33176010
Pair 2 0, 4 1:      -2.43481273
Pair 2 0, 4 2:      -1.54532062
Pair 2 0, 4 3:      -2.25781521
Pair 2 0, 4 4:      -3.17643893
Pair 2 0, 4 5:      -6.33786916
Pair 2 0, 4 6:      -5.51905627
Pair 2 0, 4 7:       4.88440793
Pair 2 0, 4 8:       5.35877894
Pair 2 0, 4 9:       5.90157750
Pair 2 0, 4 10:       5.43836296
Pair 2 0, 4 11:       5.00000735
Pair 2 0, 4 12:       4.94865306
Pair 2 0, 4 13:      -2.39544670
Pair 2 0, 4 14:      -4.66961904
Pair 2 0, 4 15:      -4.12656789
Pair 2 0, 4 16:      -1.39874430
Pair 2 0, 4 17:      -1.25529442
Pair 2 0, 4 18:      -0.68024820
Pair 2 0, 5 0:      -1.75156307
Pair 2 0, 5 1:      -2.64576668
Pair 2 0, 5 2:      -2.01069603
Pair 2 0, 5 3:      -1.82574787
Pair 2 0, 5 4:      -1.88898923
Pair 2 0, 5 5:      -2.76347110
Pair 2 0, 5 6:      -2.35384281
Pair 2 0, 5 7:      -3.82813294
Pair 2 0, 5 8:      -3.47546815
Pair 2 0, 5 9:      -3.05362611
Pair 2 0, 5 10:      -3.37828763
Pair 2 0, 5 11:      -3.60330800
Pair 2 0, 5 12:      -3.69402421
Pair 2 0, 5 13:      -2.97972462
Pair 2 0, 5 14:      -3.24578949
Pair 2 0, 5 15:      -2.71896263
Pair 2 0, 5 16:      -2.01191159
Pair 2 0, 5 17:      -2.21504498
Pair 2 0, 5 18:      -1.79537681
Pair 2 3, 3 0:      40.33953756
Pair 2 3, 3 1:      53.38092978
Pair 2 3, 3 2:     304.37345981
Pair 2 3, 3 3:      41.07536597
Pair 2 3, 3 4:      40.03976044
Pair 2 3, 3 5:      43.91058762
Pair 2 3, 3 6:      59.39078687
Pair 2 3, 3 7:      41.27573229
Pair 2 3, 3 8:      41.82319314
Pair 2 3, 4 0:      -3.29594884
Pair 2 3, 4 1:       0.05195908
Pair 2 3, 4 2:       0.29740342
Pair 2 3, 4 3:      -0.50710122
Pair 2 3, 4 4:      -3.21372362
Pair 2 3, 4 5:      -7.78683481
Pair 2 3, 4 6:     -10.63964141
Pair 2 3, 4 7:       4.29343534
Pair 2 3, 4 8:       4.59957156
Pair 2 3, 4 9:       4.92218710
Pair 2 3, 4 10:       4.32055812
Pair 2 3, 4 11:       4.14396208
Pair 2 3, 4 12:       3.77538467
Pair 2 3, 4 13:      -1.87620353
Pair 2 3, 4 14:      -5.19747587
Pair 2 3, 4 15:      -6.45945681
Pair 2 3, 4 16:      -2.22336640
Pair 2 3, 4 17:      -1.18277491
Pair 2 3, 4 18:      -0.65639127
Pair 2 3, 5 0:      -1.52448989
Pair 2 3, 5 1:      -2.60888530
Pair 2 3, 5 2:      -1.63846166
Pair 2 3, 5 3:      -1.42773811
Pair 2 3, 5 4:      -1.69140401
Pair 2 3, 5 5:      -2.95048813
Pair 2 3, 5 6:      -2.39271040
Pair 2 3, 5 7:      -4.03202969
Pair 2 3, 5 8:      -3.71381232
Pair 2 3, 5 9:      -3.31384353
Pair 2 3, 5 10:      -3.70039407
Pair 2 3, 5 11:      -3.84154490
Pair 2 3, 5 12:      -4.03350915
Pair 2 3, 5 13:      -3.05561168
Pair 2 3, 5 14:      -3.33452083
Pair 2 3, 5 15:      -2.98517828
Pair 2 3, 5 16:      -2.25602163
Pair 2 3, 5 17:      -2.36152999
Pair 2 3, 5 18:      -1.96126559
Pair 2 4, 3 0:      41.79867490
Pair 2 4, 3 1:      65.35982680
Pair 2 4, 3 2:     226.01514265
Pair 2 4, 3 3:      42.84339188
Pair 2 4, 3 4:      40.94515206
Pair 2 4, 3 5:      44.95852744
Pair 2 4, 3 6:      54.86683766
Pair 2 4, 3 7:      42.19894975
Pair 2 4, 3 8:      43.12215106
Pair 2 4, 4 0:      -1.85134079
Pair 2 4, 4 1:      -2.44110711
Pair 2 4, 4 2:       0.02625014
Pair 2 4, 4 3:      -0.89502423
Pair 2 4, 4 4:      -1.49878554
Pair 2 4, 4 5:     -11.40289839
Pair 2 4, 4 6:      -7.00476678
Pair 2 4, 4 7:       6.11488887
Pair 2 4, 4 8:       6.56446153
Pair 2 4, 4 9:       7.17692937
Pair 2 4, 4 10:       6.58086444
Pair 2 4, 4 11:       6.08998899
Pair 2 4, 4 12:       5.85993923
Pair 2 4, 4 13:      -2.67340052
Pair 2 4, 4 14:      -6.42151240
Pair 2 4, 4 15:      -5.66268862
Pair 2 4, 4 16:      -1.55048647
Pair 2 4, 4 17:      -1.50252438
Pair 2 4, 4 18:      -0.89275405
Pair 2 4, 5 0:      -1.67244544
Pair 2 4, 5 1:      -2.73729181
Pair 2 4, 5 2:      -1.77399899
Pair 2 4, 5 3:      -1.58808425
Pair 2 4, 5 4:      -1.83614894
Pair 2 4, 5 5:      -3.19671137
Pair 2 4, 5 6:      -2.60007576
Pair 2 4, 5 7:      -3.89256699
Pair 2 4, 5 8:      -3.56852288
Pair 2 4, 5 9:      -3.14514861
Pair 2 4, 5 10:      -3.45443681
Pair 2 4, 5 11:      -3.64937049
Pair 2 4, 5 12:      -3.75130215
Pair 2 4, 5 13:      -2.98668374
Pair 2 4, 5 14:      -3.33776576
Pair 2 4, 5 15:      -2.79633544
Pair 2 4, 5 16:      -1.96822512
Pair 2 4, 5 17:      -2.15980673
Pair 2 4, 5 18:      -1.70766369
Pair 3 0, 4 0:      -2.72201472
Pair 3 0, 4 1:      -4.00347511
Pair 3 0, 4 2:      -2.82259006
Pair 3 0, 4 3:      -2.43209460
Pair 3 0, 4 4:      -2.72299984
Pair 3 0, 4 5:      -4.57498157
Pair 3 0, 4 6:      -3.62889574
Pair 3 0, 4 7:      -3.43541876
Pair 3 0, 4 8:      -3.44453166
Pair 3 0, 4 9:      -3.06340497
Pair 3 0, 4 10:      -2.78062613
Pair 3 0, 4 11:      -3.17796308
Pair 3 0, 4 12:      -2.83417119
Pair 3 0, 4 13:      -3.79386564
Pair 3 0, 4 14:      -4.14437219
Pair 3 0, 4 15:      -2.30694857
Pair 3 0, 4 16:      -1.22076752
Pair 3 0, 4 17:      -2.12887712
Pair 3 0, 4 18:      -1.23244006
Pair 3 1, 4 0:       4.13104730
Pair 3 1, 4 1:       6.30915906
Pair 3 1, 4 2:       7.38557170
Pair 3 1, 4 3:       7.19619347
Pair 3 1, 4 4:       5.98482177
Pair 3 1, 4 5:       4.15339425
Pair 3 1, 4 6:       4.05933265
Pair 3 1, 4 7:      -3.78378519
Pair 3 1, 4 8:      -4.09334325
Pair 3 1, 4 9:      -4.19671913
Pair 3 1, 4 10:      -4.01847083
Pair 3 1, 4 11:      -3.67382111
Pair 3 1, 4 12:      -3.78957491
Pair 3 1, 4 13:      -1.68600189
Pair 3 1, 4 14:      -3.27614550
Pair 3 1, 4 15:      -3.57106997
Pair 3 1, 4 16:      -1.06219633
Pair 3 1, 4 17:      -0.33566764
Pair 3 1, 4 18:       0.03011663
Pair 3 2, 4 0:       7.82710601
Pair 3 2, 4 1:      10.62588722
Pair 3 2, 4 2:      12.06298449
Pair 3 2, 4 3:      11.89237403
Pair 3 2, 4 4:      10.56303307
Pair 3 2, 4 5:       7.38814730
Pair 3 2, 4 6:       7.52933201
Pair 3 2, 4 7:      -4.68747599
Pair 3 2, 4 8:      -4.44552986
Pair 3 2, 4 9:      -4.15051042
Pair 3 2, 4 10:      -4.40804880
Pair 3 2, 4 11:      -4.63595744
Pair 3 2, 4 12:      -4.67773561
Pair 3 2, 4 13:      -2.08164863
Pair 3 2, 4 14:      -3.79841662
Pair 3 2, 4 15:      -4.40911936
Pair 3 2, 4 16:      -1.31651826
Pair 3 2, 4 17:      -0.73116324
Pair 3 2, 4 18:      -0.18775188
Pair 3 3, 4 0:      -3.41573200
Pair 3 3, 4 1:      -4.78944540
Pair 3 3, 4 2:      -3.51999334
Pair 3 3, 4 3:      -3.08363663
Pair 3 3, 4 4:      -3.43417123
Pair 3 3, 4 5:      -5.35022974
Pair 3 3, 4 6:      -4.37707374
Pair 3 3, 4 7:      -3.86509232
Pair 3 3, 4 8:      -4.00382981
Pair 3 3, 4 9:      -3.53437979
Pair 3 3, 4 10:      -3.08888275
Pair 3 3, 4 11:      -3.50384183
Pair 3 3, 4 12:      -3.09691134
Pair 3 3, 4 13:      -4.66928844
Pair 3 3, 4 14:      -4.55353727
Pair 3 3, 4 15:      -2.37059912
Pair 3 3, 4 16:      -1.29559592
Pair 3 3, 4 17:      -2.72238596
Pair 3 3, 4 18:      -1.46302263
Pair 3 4, 4 0:      -3.88250183
Pair 3 4, 4 1:      -4.24862267
Pair 3 4, 4 2:      -3.33990924
Pair 3 4, 4 3:      -3.22013911
Pair 3 4, 4 4:      -3.94104831
Pair 3 4, 4 5:      -5.15058104
Pair 3 4, 4 6:      -4.96138766
Pair 3 4, 4 7:      -3.27605578
Pair 3 4, 4 8:      -3.77943488
Pair 3 4, 4 9:      -3.70323622
Pair 3 4, 4 10:      -3.15595099
Pair 3 4, 4 11:      -3.00031626
Pair 3 4, 4 12:      -2.89393907
Pair 3 4, 4 13:      -3.05921136
Pair 3 4, 4 14:      -3.50951325
Pair 3 4, 4 15:      -1.98399018
Pair 3 4, 4 16:      -0.56159923
Pair 3 4, 4 17:      -1.43516734
Pair 3 4, 4 18:      -0.39635834
Pair 3 5, 4 0:      17.81973664
Pair 3 5, 4 1:      26.59725367
Pair 3 5, 4 2:      27.09846681
Pair 3 5, 4 3:      27.36577360
Pair 3 5, 4 4:      25.65334665
Pair 3 5, 4 5:      24.76138914
Pair 3 5, 4 6:      23.49890101
Pair 3 5, 4 7:      -7.55702273
Pair 3 5, 4 8:      -9.58996506
Pair 3 5, 4 9:      -9.36906171
Pair 3 5, 4 10:      -7.41141785
Pair 3 5, 4 11:      -7.02755505
Pair 3 5, 4 12:      -6.85032912
Pair 3 5, 4 13:       1.66080726
Pair 3 5, 4 14:       0.78411497
Pair 3 5, 4 15:       9.63673574
Pair 3 5, 4 16:      14.00219475
Pair 3 5, 4 17:       5.27655965
Pair 3 5, 4 18:      13.05029471
Pair 3 6, 4 0:      -2.11315649
Pair 3 6, 4 1:      -3.14340358
Pair 3 6, 4 2:      -2.04595052
Pair 3 6, 4 3:      -1.79248493
Pair 3 6, 4 4:      -2.11648127
Pair 3 6, 4 5:      -3.88911187
Pair 3 6, 4 6:      -3.09111723
Pair 3 6, 4 7:      -3.20285876
Pair 3 6, 4 8:      -2.91292964
Pair 3 6, 4 9:      -2.51097261
Pair 3 6, 4 10:      -2.55673651
Pair 3 6, 4 11:      -3.06157560
Pair 3 6, 4 12:      -2.81579077
Pair 3 6, 4 13:      -2.97004056
Pair 3 6, 4 14:      -3.63124895
Pair 3 6, 4 15:      -2.29188029
Pair 3 6, 4 16:      -0.99739648
Pair 3 6, 4 17:      -1.42832448
Pair 3 6, 4 18:      -0.70773701
Pair 3 7, 4 0:      -2.82735034
Pair 3 7, 4 1:      -3.31408836
Pair 3 7, 4 2:      -2.40261298
Pair 3 7, 4 3:      -2.28016920
Pair 3 7, 4 4:      -2.85430404
Pair 3 7, 4 5:      -4.20657147
Pair 3 7, 4 6:      -3.85939902
Pair 3 7, 4 7:      -2.98578377
Pair 3 7, 4 8:      -3.14967559
Pair 3 7, 4 9:      -3.03864057
Pair 3 7, 4 10:      -2.79726220
Pair 3 7, 4 11:      -2.81645925
Pair 3 7, 4 12:      -2.71014148
Pair 3 7, 4 13:      -2.44058703
Pair 3 7, 4 14:      -3.47943309
Pair 3 7, 4 15:      -2.13720668
Pair 3 7, 4 16:      -0.60200190
Pair 3 7, 4 17:      -0.86756671
Pair 3 7, 4 18:      -0.20464041
Pair 3 8, 4 0:      -2.56936235
Pair 3 8, 4 1:      -3.94335700
Pair 3 8, 4 2:      -2.72365361
Pair 3 8, 4 3:      -2.31199107
Pair 3 8, 4 4:      -2.56476007
Pair 3 8, 4 5:      -4.50451078
Pair 3 8, 4 6:      -3.48107229
Pair 3 8, 4 7:      -3.47070847
Pair 3 8, 4 8:      -3.39415311
Pair 3 8, 4 9:      -3.00641325
Pair 3 8, 4 10:      -2.78600598
Pair 3 8, 4 11:      -3.24101953
Pair 3 8, 4 12:      -2.88379286
Pair 3 8, 4 13:      -3.82074018
Pair 3 8, 4 14:      -4.26514828
Pair 3 8, 4 15:      -2.38576778
Pair 3 8, 4 16:      -1.26923657
Pair 3 8, 4 17:      -2.07876987
Pair 3 8, 4 18:      -1.23575200
Pair 4 0, 5 0:       1.48944208
Pair 4 0, 5 1:      -2.39379136
Pair 4 0, 5 2:      -1.31637618
Pair 4 0, 5 3:      -0.98698047
Pair 4 0, 5 4:       0.89523307
Pair 4 0, 5 5:      -1.85491073
Pair 4 0, 5 6:       2.28701856
Pair 4 0, 5 7:       7.74974395
Pair 4 0, 5 8:       7.88206731
Pair 4 0, 5 9:       8.06066077
Pair 4 0, 5 10:       8.14976153
Pair 4 0, 5 11:       7.83772521
Pair 4 0, 5 12:       8.05692878
Pair 4 0, 5 13:      -0.76409012
Pair 4 0, 5 14:      -0.32973313
Pair 4 0, 5 15:       0.59642137
Pair 4 0, 5 16:       0.06037970
Pair 4 0, 5 17:      -0.69398193
Pair 4 0, 5 18:      -0.61491358
Pair 4 1, 5 0:       2.57266291
Pair 4 1, 5 1:       0.64455347
Pair 4 1, 5 2:       1.96966036
Pair 4 1, 5 3:       1.91323561
Pair 4 1, 5 4:       1.94066235
Pair 4 1, 5 5:      -3.57102749
Pair 4 1, 5 6:      -0.59045750
Pair 4 1, 5 7:       3.16650077
Pair 4 1, 5 8:       3.16861703
Pair 4 1, 5 9:       3.22081010
Pair 4 1, 5 10:       3.00202215
Pair 4 1, 5 11:       2.92206841
Pair 4 1, 5 12:       2.68767532
Pair 4 1, 5 13:      -1.03183431
Pair 4 1, 5 14:      -0.87295771
Pair 4 1, 5 15:      -0.82464994
Pair 4 1, 5 16:      -1.14208646
Pair 4 1, 5 17:      -1.37121028
Pair 4 1, 5 18:      -1.42212189
Pair 4 2, 5 0:      -0.45713097
Pair 4 2, 5 1:      -0.45170859
Pair 4 2, 5 2:      -0.59070460
Pair 4 2, 5 3:      -0.14067731
Pair 4 2, 5 4:      -0.65309247
Pair 4 2, 5 5:       2.05890023
Pair 4 2, 5 6:      -1.15997788
Pair 4 2, 5 7:       6.68091437
Pair 4 2, 5 8:       6.70312406
Pair 4 2, 5 9:       6.66144925
Pair 4 2, 5 10:       6.61191627
Pair 4 2, 5 11:       6.50089652
Pair 4 2, 5 12:       6.48845755
Pair 4 2, 5 13:      -1.29792136
Pair 4 2, 5 14:      -0.74269192
Pair 4 2, 5 15:      -0.60886810
Pair 4 2, 5 16:      -1.38949658
Pair 4 2, 5 17:      -1.48203186
Pair 4 2, 5 18:      -1.57848764
Pair 4 3, 5 0:      -4.53275510
Pair 4 3, 5 1:      -5.12043240
Pair 4 3, 5 2:      -5.89343584
Pair 4 3, 5 3:      -5.13482742
Pair 4 3, 5 4:      -4.47687641
Pair 4 3, 5 5:      16.97927923
Pair 4 3, 5 6:       6.07575406
Pair 4 3, 5 7:      29.03831535
Pair 4 3, 5 8:      29.18692667
Pair 4 3, 5 9:      29.26166232
Pair 4 3, 5 10:      29.50454442
Pair 4 3, 5 11:      29.28316502
Pair 4 3, 5 12:      29.71042000
Pair 4 3, 5 13:      -0.82388311
Pair 4 3, 5 14:       0.23106625
Pair 4 3, 5 15:       1.35360113
Pair 4 3, 5 16:      -0.01674615
Pair 4 3, 5 17:      -0.53713638
Pair 4 3, 5 18:      -0.60788296
Pair 4 4, 5 0:       1.10422206
Pair 4 4, 5 1:      -2.44893127
Pair 4 4, 5 2:      -1.48350514
Pair 4 4, 5 3:      -1.17554319
Pair 4 4, 5 4:       0.61042510
Pair 4 4, 5 5:      -1.85139177
Pair 4 4, 5 6:       1.98607379
Pair 4 4, 5 7:       6.80843046
Pair 4 4, 5 8:       6.94198763
Pair 4 4, 5 9:       7.11810475
Pair 4 4, 5 10:       7.21399936
Pair 4 4, 5 11:       6.90471722
Pair 4 4, 5 12:       7.13352205
Pair 4 4, 5 13:      -0.76466416
Pair 4 4, 5 14:      -0.30559427
Pair 4 4, 5 15:       0.63546130
Pair 4 4, 5 16:       0.06468035
Pair 4 4, 5 17:      -0.68293191
Pair 4 4, 5 18:      -0.60574464
Pair 4 5, 5 0:       2.31229999
Pair 4 5, 5 1:      -0.02586225
Pair 4 5, 5 2:       1.83900736
Pair 4 5, 5 3:       1.73793576
Pair 4 5, 5 4:       1.80050487
Pair 4 5, 5 5:      -3.48406564
Pair 4 5, 5 6:       0.00314954
Pair 4 5, 5 7:       3.12529761
Pair 4 5, 5 8:       3.16115317
Pair 4 5, 5 9:       3.31444227
Pair 4 5, 5 10:       3.11082341
Pair 4 5, 5 11:       2.99264534
Pair 4 5, 5 12:       2.80215498
Pair 4 5, 5 13:      -1.24117765
Pair 4 5, 5 14:      -0.78019594
Pair 4 5, 5 15:      -0.44454871
Pair 4 5, 5 16:      -0.99107028
Pair 4 5, 5 17:      -1.41791883
Pair 4 5, 5 18:      -1.37683976
Pair 4 6, 5 0:       2.54495415
Pair 4 6, 5 1:      -0.08956285
Pair 4 6, 5 2:       1.73097694
Pair 4 6, 5 3:       1.73959162
Pair 4 6, 5 4:       1.99369524
Pair 4 6, 5 5:      -4.15889934
Pair 4 6, 5 6:      -0.49018091
Pair 4 6, 5 7:       3.11993932
Pair 4 6, 5 8:       3.18921130
Pair 4 6, 5 9:       3.37448048
Pair 4 6, 5 10:       3.24588553
Pair 4 6, 5 11:       3.03738445
Pair 4 6, 5 12:       2.95851300
Pair 4 6, 5 13:      -1.18326512
Pair 4 6, 5 14:      -0.77217374
Pair 4 6, 5 15:      -0.36207601
Pair 4 6, 5 16:      -0.76719983
Pair 4 6, 5 17:      -1.28646550
Pair 4 6, 5 18:      -1.18127943
Pair 4 7, 5 0:       5.28023867
Pair 4 7, 5 1:       3.53501332
Pair 4 7, 5 2:       2.09074114
Pair 4 7, 5 3:       2.47126166
Pair 4 7, 5 4:       2.92478000
Pair 4 7, 5 5:      21.68176196
Pair 4 7, 5 6:       8.68160464
Pair 4 7, 5 7:      51.38580194
Pair 4 7, 5 8:      51.35654902
Pair 4 7, 5 9:      51.23091869
Pair 4 7, 5 10:      51.21061738
Pair 4 7, 5 11:      51.28065997
Pair 4 7, 5 12:      51.22804552
Pair 4 7, 5 13:       0.75977239
Pair 4 7, 5 14:       0.00721313
Pair 4 7, 5 15:      -1.98528841
Pair 4 7, 5 16:      -0.56793861
Pair 4 7, 5 17:       0.26963659
Pair 4 7, 5 18:       0.14901491
Pair 4 8, 5 0:       4.81720945
Pair 4 8, 5 1:       2.95392659
Pair 4 8, 5 2:       1.52296166
Pair 4 8, 5 3:       1.95916866
Pair 4 8, 5 4:       2.49690543
Pair 4 8, 5 5:      21.39745695
Pair 4 8, 5 6:       8.55087257
Pair 4 8, 5 7:      51.30919191
Pair 4 8, 5 8:      51.26903032
Pair 4 8, 5 9:      51.19019006
Pair 4 8, 5 10:      51.23824887
Pair 4 8, 5 11:      51.24169536
Pair 4 8, 5 12:      51.24565527
Pair 4 8, 5 13:       0.65402840
Pair 4 8, 5 14:      -0.62975436
Pair 4 8, 5 15:      -1.81320407
Pair 4 8, 5 16:      -0.03317654
Pair 4 8, 5 17:       0.61714741
Pair 4 8, 5 18:       0.61271970
Pair 4 9, 5 0:       5.17542513
Pair 4 9, 5 1:       2.92758149
Pair 4 9, 5 2:       1.53210944
Pair 4 9, 5 3:       2.11031896
Pair 4 9, 5 4:       2.83794281
Pair 4 9, 5 5:      21.30957551
Pair 4 9, 5 6:       8.56699795
Pair 4 9, 5 7:      51.31619837
Pair 4 9, 5 8:      51.28971932
Pair 4 9, 5 9:      51.28030024
Pair 4 9, 5 10:      51.38771068
Pair 4 9, 5 11:      51.25423387
Pair 4 9, 5 12:      51.32984295
Pair 4 9, 5 13:       0.50009531
Pair 4 9, 5 14:      -0.79069759
Pair 4 9, 5 15:      -1.67769081
Pair 4 9, 5 16:       0.28153433
Pair 4 9, 5 17:       0.55984877
Pair 4 9, 5 18:       0.68891568
Pair 4 10, 5 0:       5.60813544
Pair 4 10, 5 1:       2.24031835
Pair 4 10, 5 2:       1.01348782
Pair 4 10, 5 3:       1.63652524
Pair 4 10, 5 4:       3.17456200
Pair 4 10, 5 5:      20.80800142
Pair 4 10, 5 6:       9.55221992
Pair 4 10, 5 7:      51.35787456
Pair 4 10, 5 8:      51.36497150
Pair 4 10, 5 9:      51.44505013
Pair 4 10, 5 10:      51.65288105
Pair 4 10, 5 11:      51.33667885
Pair 4 10, 5 12:      51.55714344
Pair 4 10, 5 13:      -0.09376724
Pair 4 10, 5 14:      -1.12021495
Pair 4 10, 5 15:      -0.20378288
Pair 4 10, 5 16:       0.81473761
Pair 4 10, 5 17:       0.17932981
Pair 4 10, 5 18:       0.29066112
Pair 4 11, 5 0:       6.57927715
Pair 4 11, 5 1:       5.73715739
Pair 4 11, 5 2:       4.57487873
Pair 4 11, 5 3:       4.92871204
Pair 4 11, 5 4:       5.33818118
Pair 4 11, 5 5:      23.54028969
Pair 4 11, 5 6:      10.88208789
Pair 4 11, 5 7:      51.20847638
Pair 4 11, 5 8:      51.22850868
Pair 4 11, 5 9:      51.15088659
Pair 4 11, 5 10:      51.10756172
Pair 4 11, 5 11:      51.10921701
Pair 4 11, 5 12:      51.10129975
Pair 4 11, 5 13:      -0.88797943
Pair 4 11, 5 14:       1.43878083
Pair 4 11, 5 15:      -0.32958030
Pair 4 11, 5 16:      -2.01111831
Pair 4 11, 5 17:      -1.61248417
Pair 4 11, 5 18:      -1.73567212
Pair 4 12, 5 0:       5.62097650