Self 0 0:     -12.19944627
Self 0 1:   60994.43288716
Self 0 2:   60500.07373306
Self 0 3:      28.04727309
Self 0 4:      30.26137062
Self 0 5:     -20.61482565
Self 0 6:     -20.12437172
Self 0 7:     -15.28764663
Self 0 8:     -14.20573079
Self 1 0:      -4.75317245
Self 1 1:      -0.80155046
Self 1 2:      -2.45115148
Self 1 3: 4196313.46173109
Self 1 4: 4186352.75702257
Self 1 5:      -2.38632482
Self 1 6:      -3.44394276
Self 1 7:      94.87698386
Self 1 8:      94.53105385
Self 2 0:       4.85823224
Self 2 1:    1161.57263680
Self 2 2:    1161.57263680
Self 2 3:      18.73772394
Self 2 4:      18.73772394
Self 2 5:     227.91981333
Pair 0 0, 1 0:      -0.15503713
Pair 0 0, 1 1:      -0.51103505
Pair 0 0, 1 2:      -0.40973127
Pair 0 0, 1 5:      -0.25469856
Pair 0 0, 1 6:      -0.13036582
Pair 0 0, 2 0:      -3.59579508
Pair 0 0, 2 3:      -3.32523999
Pair 0 0, 2 4:      -3.32523999
Pair 0 5, 1 0:      -0.14222047
Pair 0 5, 1 1:      -0.55328437
Pair 0 5, 1 2:      -0.42126214
Pair 0 5, 1 5:      -0.25512850
Pair 0 5, 1 6:      -0.11471032
Pair 0 5, 2 0:      -3.36231558
Pair 0 5, 2 3:      -3.14553434
Pair 0 5, 2 4:      -3.14553434
Pair 0 6, 1 0:      -0.14627083
Pair 0 6, 1 1:      -0.54600741
Pair 0 6, 1 2:      -0.48748420
Pair 0 6, 1 5:      -0.24055348
Pair 0 6, 1 6:      -0.12478359
Pair 0 6, 2 0:      -3.30706025
Pair 0 6, 2 3:      -3.14249427
Pair 0 6, 2 4:      -3.14249427
Pair 0 7, 1 0:      -0.15885350
Pair 0 7, 1 1:      -0.52047560
Pair 0 7, 1 2:      -0.38699231
Pair 0 7, 1 5:      -0.25428586
Pair 0 7, 1 6:      -0.13930002
Pair 0 7, 2 0:      -3.50738426
Pair 0 7, 2 3:      -3.25999114
Pair 0 7, 2 4:      -3.25999114
Pair 0 8, 1 0:      -0.20666139
Pair 0 8, 1 1:      -0.51441650
Pair 0 8, 1 2:      -0.45684685
Pair 0 8, 1 5:      -0.26688845
Pair 0 8, 1 6:      -0.19893900
Pair 0 8, 2 0:      -3.31993283
Pair 0 8, 2 3:      -3.11217831
Pair 0 8, 2 4:      -3.11217831
Pair 1 0, 2 0:      -3.28937210
Pair 1 0, 2 3:      -3.40067358
Pair 1 0, 2 4:      -3.40067358
Pair 1 1, 2 0:      -3.40556465
Pair 1 1, 2 3:      -3.57653659
Pair 1 1, 2 4:      -3.57653659
Pair 1 2, 2 0:      -4.39828093
Pair 1 2, 2 3:      -4.72133557
Pair 1 2, 2 4:      -4.72133557
Pair 1 5, 2 0:      -3.04667356
Pair 1 5, 2 3:      -3.15467882
Pair 1 5, 2 4:      -3.15467882
Pair 1 6, 2 0:      -3.32382262
Pair 1 6, 2 3:      -3.44029056
Pair 1 6, 2 4:      -3.44029056
Triple 0 0, 1 0, 2 0:       0.06286569
Triple 0 0, 1 0, 2 3:       0.06233851
Triple 0 0, 1 0, 2 4:       0.06233851
Triple 0 0, 1 1, 2 0:       0.02578340
Triple 0 0, 1 1, 2 3:       0.02630160
Triple 0 0, 1 1, 2 4:       0.02630160
Triple 0 0, 1 2, 2 0:       0.04612449
Triple 0 0, 1 2, 2 3:       0.04375338
Triple 0 0, 1 2, 2 4:       0.04375338
Triple 0 0, 1 5, 2 0:       0.05231562
Triple 0 0, 1 5, 2 3:       0.05325466
Triple 0 0, 1 5, 2 4:       0.05325466
Triple 0 0, 1 6, 2 0:       0.06735141
Triple 0 0, 1 6, 2 3:       0.06626182
Triple 0 0, 1 6, 2 4:       0.06626182
Triple 0 5, 1 0, 2 0:       0.07104546
Triple 0 5, 1 0, 2 3:       0.07077796
Triple 0 5, 1 0, 2 4:       0.07077796
Triple 0 5, 1 1, 2 0:       0.04026523
Triple 0 5, 1 1, 2 3:       0.04132528
Triple 0 5, 1 1, 2 4:       0.04132528
Triple 0 5, 1 2, 2 0:       0.06242771
Triple 0 5, 1 2, 2 3:       0.06044100
Triple 0 5, 1 2, 2 4:       0.06044100
Triple 0 5, 1 5, 2 0:       0.06100830
Triple 0 5, 1 5, 2 3:       0.06206261
Triple 0 5, 1 5, 2 4:       0.06206261
Triple 0 5, 1 6, 2 0:       0.07597730
Triple 0 5, 1 6, 2 3:       0.07518718
Triple 0 5, 1 6, 2 4:       0.07518718
Triple 0 6, 1 0, 2 0:       0.06560412
Triple 0 6, 1 0, 2 3:       0.06570863
Triple 0 6, 1 0, 2 4:       0.06570863
Triple 0 6, 1 1, 2 0:       0.02433685
Triple 0 6, 1 1, 2 3:       0.02566602
Triple 0 6, 1 1, 2 4:       0.02566602
Triple 0 6, 1 2, 2 0:       0.04609203
Triple 0 6, 1 2, 2 3:       0.04436140
Triple 0 6, 1 2, 2 4:       0.04436140
Triple 0 6, 1 5, 2 0:       0.05527439
Triple 0 6, 1 5, 2 3:       0.05672688
Triple 0 6, 1 5, 2 4:       0.05672688
Triple 0 6, 1 6, 2 0:       0.07027680
Triple 0 6, 1 6, 2 3:       0.06988870
Triple 0 6, 1 6, 2 4:       0.06988870
Triple 0 7, 1 0, 2 0:       0.06660721
Triple 0 7, 1 0, 2 3:       0.06605943
Triple 0 7, 1 0, 2 4:       0.06605943
Triple 0 7, 1 1, 2 0:       0.03848630
Triple 0 7, 1 1, 2 3:       0.03862817
Triple 0 7, 1 1, 2 4:       0.03862817
Triple 0 7, 1 2, 2 0:       0.05937182
Triple 0 7, 1 2, 2 3:       0.05653079
Triple 0 7, 1 2, 2 4:       0.05653079
Triple 0 7, 1 5, 2 0:       0.05546708
Triple 0 7, 1 5, 2 3:       0.05630914
Triple 0 7, 1 5, 2 4:       0.05630914
Triple 0 7, 1 6, 2 0:       0.07082449
Triple 0 7, 1 6, 2 3:       0.06971428
Triple 0 7, 1 6, 2 4:       0.06971428
Triple 0 8, 1 0, 2 0:       0.05264196
Triple 0 8, 1 0, 2 3:       0.05205863
Triple 0 8, 1 0, 2 4:       0.05205863
Triple 0 8, 1 1, 2 0:       0.01439614
Triple 0 8, 1 1, 2 3:       0.01336141
Triple 0 8, 1 1, 2 4:       0.01336141
Triple 0 8, 1 2, 2 0:       0.03506365
Triple 0 8, 1 2, 2 3:       0.03103169
Triple 0 8, 1 2, 2 4:       0.03103169
Triple 0 8, 1 5, 2 0:       0.04068730
Triple 0 8, 1 5, 2 3:       0.04148691
Triple 0 8, 1 5, 2 4:       0.04148691
Triple 0 8, 1 6, 2 0:       0.05587001
Triple 0 8, 1 6, 2 3:       0.05472347
Triple 0 8, 1 6, 2 4:       0.05472347
