Self 0 0:      -6.27998927
Self 0 1:   61000.49740449
Self 0 2:   60506.11769448
Self 0 3:      33.99834988
Self 0 4:      36.21792664
Self 0 5:     -14.69131548
Self 0 6:     -14.19509072
Self 0 7:      -9.35138067
Self 0 8:      -8.26123833
Self 1 0:      -6.29256945
Self 1 1:      -2.34255206
Self 1 2:      -3.99722038
Self 1 3: 4196311.91497496
Self 1 4: 4186351.21294293
Self 1 5:      -3.92631119
Self 1 6:      -4.98245651
Self 1 7:      93.33320334
Self 1 8:      93.00485049
Self 2 0:       9.95097261
Self 2 1:     673.81733951
Self 2 2:     292.33991533
Self 2 3:      23.81245611
Self 2 4:       9.10023305
Self 2 5:     156.73191964
Pair 0 0, 1 0:      -0.15725076
Pair 0 0, 1 1:      -0.51394617
Pair 0 0, 1 2:      -0.41264456
Pair 0 0, 1 5:      -0.25691504
Pair 0 0, 1 6:      -0.13255603
Pair 0 0, 2 0:      -3.58570440
Pair 0 0, 2 3:      -3.31843082
Pair 0 0, 2 4:      -3.43728560
Pair 0 5, 1 0:      -0.14440406
Pair 0 5, 1 1:      -0.55610887
Pair 0 5, 1 2:      -0.42414521
Pair 0 5, 1 5:      -0.25733941
Pair 0 5, 1 6:      -0.11690769
Pair 0 5, 2 0:      -3.35332410
Pair 0 5, 2 3:      -3.13966015
Pair 0 5, 2 4:      -3.23931430
Pair 0 6, 1 0:      -0.14829949
Pair 0 6, 1 1:      -0.54870921
Pair 0 6, 1 2:      -0.49024439
Pair 0 6, 1 5:      -0.24257309
Pair 0 6, 1 6:      -0.12679006
Pair 0 6, 2 0:      -3.29824008
Pair 0 6, 2 3:      -3.13679280
Pair 0 6, 2 4:      -3.21219555
Pair 0 7, 1 0:      -0.16109693
Pair 0 7, 1 1:      -0.52335258
Pair 0 7, 1 2:      -0.38998485
Pair 0 7, 1 5:      -0.25655424
Pair 0 7, 1 6:      -0.14157955
Pair 0 7, 2 0:      -3.49848349
Pair 0 7, 2 3:      -3.25447623
Pair 0 7, 2 4:      -3.38534090
Pair 0 8, 1 0:      -0.20892470
Pair 0 8, 1 1:      -0.51735155
Pair 0 8, 1 2:      -0.45989675
Pair 0 8, 1 5:      -0.26916474
Pair 0 8, 1 6:      -0.20122567
Pair 0 8, 2 0:      -3.31129859
Pair 0 8, 2 3:      -3.10675394
Pair 0 8, 2 4:      -3.21841263
Pair 1 0, 2 0:      -3.28562095
Pair 1 0, 2 3:      -3.39698062
Pair 1 0, 2 4:      -3.34622150
Pair 1 1, 2 0:      -3.40370240
Pair 1 1, 2 3:      -3.57612842
Pair 1 1, 2 4:      -3.40836263
Pair 1 2, 2 0:      -4.39666918
Pair 1 2, 2 3:      -4.72165626
Pair 1 2, 2 4:      -4.43600302
Pair 1 5, 2 0:      -3.04220179
Pair 1 5, 2 3:      -3.15064414
Pair 1 5, 2 4:      -3.08559702
Pair 1 6, 2 0:      -3.31960948
Pair 1 6, 2 3:      -3.43610409
Pair 1 6, 2 4:      -3.38567847
