Self 0 0:      -8.08634410
Self 0 1:     -16.76170821
Self 0 2:     -12.57936504
Self 0 3:       6.27839766
Self 0 4:       7.04851582
Self 0 5:     -17.15478984
Self 0 6:     -16.38326016
Self 0 7:     -10.40074139
Self 0 8:      -9.40814540
Self 1 0:      -0.07713184
Self 1 1:       1.69468285
Self 1 2:       0.92310925
Self 1 3: 4196315.87834763
Self 1 4: 4186354.16789596
Self 1 5:      -2.06060021
Self 1 6:      -3.45031217
Self 1 7:       8.41585384
Self 1 8:       8.02365374
Self 2 0:     -27.31155469
Self 2 1:      34.98255657
Self 2 2:      34.98255657
Self 2 3:     -12.00801745
Self 2 4:     -12.00801745
Self 2 5:      -4.35881366
Self 3 0:      -2.89438397
Self 3 1:      -1.02804704
Self 3 2:      -7.71677684
Self 3 3:       0.19894025
Self 3 4:       0.78625323
Self 3 5:       0.91795342
Self 3 6:     -12.36582672
Self 3 7:      -3.62783963
Self 3 8:      -3.33267341
Self 4 0:       2.25134826
Self 4 1:       7.58515411
Self 4 2:       6.22459265
Self 4 3:       3.11150628
Self 4 4:       2.57220642
Self 4 5:       5.15239008
Self 4 6:       5.64339529
Self 4 7:      16.09694068
Self 4 8:      20.63583032
Self 4 9:      21.53243340
Self 4 10:      21.92721883
Self 4 11:      14.74049464
Self 4 12:      23.69606765
Self 4 13:      10.95363817
Self 4 14:       9.14941580
Self 4 15:       9.27661777
Self 4 16:       9.09575691
Self 4 17:       8.47742145
Self 4 18:      11.32519844
Self 5 0:       4.92928810
Self 5 1:       7.16370111
Self 5 2:       1.55050858
Self 5 3:       3.62382551
Self 5 4:       5.51355687
Self 5 5:       8.13656446
Self 5 6:       8.41533205
Self 5 7:      17.07375179
Self 5 8:      10.31503408
Self 5 9:       8.64533463
Self 5 10:       8.65987002
Self 5 11:       5.08553220
Self 5 12:       7.90125642
Self 5 13:       9.96950071
Self 5 14:       6.30909327
Self 5 15:       8.44549347
Self 5 16:      10.03465769
Self 5 17:       9.38445603
Self 5 18:      12.68149757
Self 6 0:      -6.40490016
Self 6 1:       7.18493317
Self 6 2:       7.43542648
Self 6 3:       7.24711831
Self 6 4:      -1.36353066
Self 6 5:       5.44510108
Self 6 6:       4.46562291
Self 6 7:      -1.41161816
Self 7 0:      -9.56104203
Self 7 1:      -7.14150277
Self 7 2:      -6.45113341
Self 7 3:      -3.23321188
Self 7 4:      -3.15282059
Self 7 5:      -8.67067074
Self 7 6:      -8.56409654
Self 7 7:      10.21134340
Self 7 8:       9.49460894
Pair 0 0, 1 0:      -0.14525101
Pair 0 0, 1 1:      -0.45040281
Pair 0 0, 1 2:      -0.37362133
Pair 0 0, 1 5:      -0.24304794
Pair 0 0, 1 6:      -0.13344937
Pair 0 0, 1 7:      -0.10740383
Pair 0 0, 1 8:      -0.14112138
Pair 0 0, 2 0:      -3.01471556
Pair 0 0, 2 3:      -2.86784433
Pair 0 0, 2 4:      -2.86784433
Pair 0 0, 2 5:      -4.68604608
Pair 0 0, 7 0:      -2.28348785
Pair 0 0, 7 1:      -2.06567317
Pair 0 0, 7 2:      -1.55564616
Pair 0 0, 7 3:       0.40380047
Pair 0 0, 7 4:       0.20440439
Pair 0 0, 7 5:       0.21886237
Pair 0 0, 7 6:       0.20310703
Pair 0 0, 7 7:       0.29023252
Pair 0 0, 7 8:       0.23967101
Pair 0 1, 1 0:      -0.22927242
Pair 0 1, 1 1:      -0.40388888
Pair 0 1, 1 2:      -0.28992560
Pair 0 1, 1 5:      -0.36680186
Pair 0 1, 1 6:      -0.21781507
Pair 0 1, 1 7:      -0.21311128
Pair 0 1, 1 8:      -0.11483945
Pair 0 1, 2 0:      -5.21261782
Pair 0 1, 2 3:      -4.28245712
Pair 0 1, 2 4:      -4.28245712
Pair 0 1, 2 5:     116.21754511
Pair 0 1, 7 0:   61013.17983662
Pair 0 1, 7 1:  463066.34431686
Pair 0 1, 7 2:  463062.62904918
Pair 0 1, 7 3:    2293.85152269
Pair 0 1, 7 4:    2293.34617560
Pair 0 1, 7 5:      53.54152082
Pair 0 1, 7 6:      53.56197009
Pair 0 1, 7 7:      53.14677399
Pair 0 1, 7 8:      53.19146968
Pair 0 2, 1 0:      -0.13554672
Pair 0 2, 1 1:      -0.34827532
Pair 0 2, 1 2:      -0.18021767
Pair 0 2, 1 5:      -0.28525344
Pair 0 2, 1 6:      -0.11714303
Pair 0 2, 1 7:      -0.13355077
Pair 0 2, 1 8:      -0.05619976
Pair 0 2, 2 0:      -9.22193976
Pair 0 2, 2 3:      -6.90061561
Pair 0 2, 2 4:      -6.90061561
Pair 0 2, 2 5:     106.48426400
Pair 0 2, 7 0:   60514.89681830
Pair 0 2, 7 1:  462992.43768245
Pair 0 2, 7 2:  462988.44224685
Pair 0 2, 7 3:     272.08408940
Pair 0 2, 7 4:     272.14694741
Pair 0 2, 7 5:      49.21188814
Pair 0 2, 7 6:      49.11614551
Pair 0 2, 7 7:      50.44262666
Pair 0 2, 7 8:      50.21041900
Pair 0 3, 1 0:      -0.05613313
Pair 0 3, 1 1:      -1.69618849
Pair 0 3, 1 2:      -1.37937987
Pair 0 3, 1 5:      -0.15356845
Pair 0 3, 1 6:      -0.02575682
Pair 0 3, 1 7:      -0.00439282
Pair 0 3, 1 8:      -0.00150895
Pair 0 3, 2 0:      -7.21424122
Pair 0 3, 2 3:      -7.90542263
Pair 0 3, 2 4:      -7.90542263
Pair 0 3, 2 5:     -10.00867359
Pair 0 3, 7 0:      25.40770038
Pair 0 3, 7 1:      44.66831693
Pair 0 3, 7 2:      30.05371910
Pair 0 3, 7 3:       0.20853442
Pair 0 3, 7 4:       0.17811417
Pair 0 3, 7 5:       0.22355218
Pair 0 3, 7 6:       0.06863332
Pair 0 3, 7 7:       0.23984763
Pair 0 3, 7 8:       0.09297760
Pair 0 4, 1 0:      -0.18304336
Pair 0 4, 1 1:      -2.10985989
Pair 0 4, 1 2:      -2.31401013
Pair 0 4, 1 5:      -0.22848696
Pair 0 4, 1 6:      -0.17273916
Pair 0 4, 1 7:      -0.12704177
Pair 0 4, 1 8:      -0.17284762
Pair 0 4, 2 0:      -4.24869286
Pair 0 4, 2 3:      -4.29259522
Pair 0 4, 2 4:      -4.29259522
Pair 0 4, 2 5:      -8.06092013
Pair 0 4, 7 0:      25.23679452
Pair 0 4, 7 1:      44.44281634
Pair 0 4, 7 2:      30.50564621
Pair 0 4, 7 3:       0.25320229
Pair 0 4, 7 4:       0.21540318
Pair 0 4, 7 5:       0.21108901
Pair 0 4, 7 6:       0.13715475
Pair 0 4, 7 7:       0.23659760
Pair 0 4, 7 8:       0.16121662
Pair 0 5, 1 0:      -0.13135641
Pair 0 5, 1 1:      -0.50911001
Pair 0 5, 1 2:      -0.39793360
Pair 0 5, 1 5:      -0.25093255
Pair 0 5, 1 6:      -0.11492300
Pair 0 5, 1 7:      -0.09295730
Pair 0 5, 1 8:      -0.10838245
Pair 0 5, 2 0:      -2.87993224
Pair 0 5, 2 3:      -2.76224495
Pair 0 5, 2 4:      -2.76224495
Pair 0 5, 2 5:      -4.23438516
Pair 0 5, 7 0:      -1.82753872
Pair 0 5, 7 1:      -1.90928146
Pair 0 5, 7 2:      -1.45364260
Pair 0 5, 7 3:       0.48729386
Pair 0 5, 7 4:       0.28963381
Pair 0 5, 7 5:       0.25542125
Pair 0 5, 7 6:       0.24596264
Pair 0 5, 7 7:       0.32388897
Pair 0 5, 7 8:       0.27799861
Pair 0 6, 1 0:      -0.14357029
Pair 0 6, 1 1:      -0.48840921
Pair 0 6, 1 2:      -0.45105927
Pair 0 6, 1 5:      -0.23899345
Pair 0 6, 1 6:      -0.13498440
Pair 0 6, 1 7:      -0.10043162
Pair 0 6, 1 8:      -0.15418594
Pair 0 6, 2 0:      -2.90521638
Pair 0 6, 2 3:      -2.83108139
Pair 0 6, 2 4:      -2.83108139
Pair 0 6, 2 5:      -4.08712894
Pair 0 6, 7 0:      -1.92641225
Pair 0 6, 7 1:      -2.04793684
Pair 0 6, 7 2:      -1.68109215
Pair 0 6, 7 3:       0.31949529
Pair 0 6, 7 4:       0.18177188
Pair 0 6, 7 5:       0.17866868
Pair 0 6, 7 6:       0.14856854
Pair 0 6, 7 7:       0.23855040
Pair 0 6, 7 8:       0.18149307
Pair 0 7, 1 0:      -0.14635945
Pair 0 7, 1 1:      -0.47171513
Pair 0 7, 1 2:      -0.36545451
Pair 0 7, 1 5:      -0.23998379
Pair 0 7, 1 6:      -0.13936919
Pair 0 7, 1 7:      -0.11427477
Pair 0 7, 1 8:      -0.16864194
Pair 0 7, 2 0:      -2.94153397
Pair 0 7, 2 3:      -2.80370883
Pair 0 7, 2 4:      -2.80370883
Pair 0 7, 2 5:      -4.22568458
Pair 0 7, 7 0:      -2.73802065
Pair 0 7, 7 1:      -2.56898394
Pair 0 7, 7 2:      -1.52344981
Pair 0 7, 7 3:       0.24985368
Pair 0 7, 7 4:       0.06907888
Pair 0 7, 7 5:       0.12648283
Pair 0 7, 7 6:       0.10176960
Pair 0 7, 7 7:       0.19062150
Pair 0 7, 7 8:       0.12520847
Pair 0 8, 1 0:      -0.18162088
Pair 0 8, 1 1:      -0.44919821
Pair 0 8, 1 2:      -0.42075207
Pair 0 8, 1 5:      -0.23143868
Pair 0 8, 1 6:      -0.18606883
Pair 0 8, 1 7:      -0.14802263
Pair 0 8, 1 8:      -0.22162558
Pair 0 8, 2 0:      -2.78374049
Pair 0 8, 2 3:      -2.67918997
Pair 0 8, 2 4:      -2.67918997
Pair 0 8, 2 5:      -4.04218298
Pair 0 8, 7 0:      -2.63113351
Pair 0 8, 7 1:      -2.50373025
Pair 0 8, 7 2:      -1.71112707
Pair 0 8, 7 3:       0.18458744
Pair 0 8, 7 4:       0.07674834
Pair 0 8, 7 5:       0.12211420
Pair 0 8, 7 6:       0.08526085
Pair 0 8, 7 7:       0.17519117
Pair 0 8, 7 8:       0.11705432
Pair 1 0, 2 0:      -3.33421959
Pair 1 0, 2 3:      -3.42370658
Pair 1 0, 2 4:      -3.42370658
Pair 1 0, 2 5:      -3.30359919
Pair 1 0, 6 0:      -2.90673077
Pair 1 0, 6 1:      -0.44156469
Pair 1 0, 6 2:      -1.05680759
Pair 1 0, 6 3:      -3.46194966
Pair 1 0, 6 4:      -1.41295715
Pair 1 0, 6 5:    1231.42870522
Pair 1 0, 6 6:   16574.28492009
Pair 1 0, 6 7:    5931.31875062
Pair 1 1, 2 0:      -3.34101583
Pair 1 1, 2 3:      -3.49371791
Pair 1 1, 2 4:      -3.49371791
Pair 1 1, 2 5:      -2.90844926
Pair 1 1, 6 0:      -0.54347014
Pair 1 1, 6 1:      -0.07369571
Pair 1 1, 6 2:      -0.15712195
Pair 1 1, 6 3:      -0.62352801
Pair 1 1, 6 4:      -0.27201237
Pair 1 1, 6 5:      -0.58718546
Pair 1 1, 6 6:      -0.61391448
Pair 1 1, 6 7:      -1.30239292
Pair 1 2, 2 0:      -4.45925405
Pair 1 2, 2 3:      -4.74686238
Pair 1 2, 2 4:      -4.74686238
Pair 1 2, 2 5:      -3.48881501
Pair 1 2, 6 0:      -0.46360907
Pair 1 2, 6 1:      -0.05162065
Pair 1 2, 6 2:      -0.15298503
Pair 1 2, 6 3:      -0.55895133
Pair 1 2, 6 4:      -0.24793202
Pair 1 2, 6 5:      -0.65727391
Pair 1 2, 6 6:      -0.58102100
Pair 1 2, 6 7:      -1.22853719
Pair 1 5, 2 0:      -3.03079319
Pair 1 5, 2 3:      -3.12883638
Pair 1 5, 2 4:      -3.12883638
Pair 1 5, 2 5:      -2.95228610
Pair 1 5, 6 0:       1.43258024
Pair 1 5, 6 1:      -0.55652998
Pair 1 5, 6 2:      -0.95087657
Pair 1 5, 6 3:      -2.91928167
Pair 1 5, 6 4:      -1.91906612
Pair 1 5, 6 5:    6153.45227173
Pair 1 5, 6 6:   17484.53441036
Pair 1 5, 6 7:   20367.52891068
Pair 1 6, 2 0:      -3.38109584
Pair 1 6, 2 3:      -3.47190367
Pair 1 6, 2 4:      -3.47190367
Pair 1 6, 2 5:      -3.39483793
Pair 1 6, 6 0:       1.74632594
Pair 1 6, 6 1:      -0.64521547
Pair 1 6, 6 2:      -1.28530240
Pair 1 6, 6 3:      -2.64298948
Pair 1 6, 6 4:      -1.90349372
Pair 1 6, 6 5:    6232.68557680
Pair 1 6, 6 6:   18600.86182776
Pair 1 6, 6 7:   20132.06311371
Pair 1 7, 2 0:      -3.12894822
Pair 1 7, 2 3:      -3.23177389
Pair 1 7, 2 4:      -3.23177389
Pair 1 7, 2 5:      -3.27031714
Pair 1 7, 6 0:      88.08714684
Pair 1 7, 6 1:       7.77420077
Pair 1 7, 6 2:       7.43686957
Pair 1 7, 6 3:      56.80789960
Pair 1 7, 6 4:       6.14285808
Pair 1 7, 6 5:   22609.11172104
Pair 1 7, 6 6:    5261.77251346
Pair 1 7, 6 7:   44844.71247164
Pair 1 8, 2 0:      -3.47678385
Pair 1 8, 2 3:      -3.56367367
Pair 1 8, 2 4:      -3.56367367
Pair 1 8, 2 5:      -3.97767342
Pair 1 8, 6 0:      88.00423057
Pair 1 8, 6 1:       7.32817199
Pair 1 8, 6 2:       6.93379632
Pair 1 8, 6 3:      56.91405127
Pair 1 8, 6 4:       5.86613762
Pair 1 8, 6 5:   22745.42022176
Pair 1 8, 6 6:    5802.99449609
Pair 1 8, 6 7:   43262.55126112
Pair 2 0, 4 0:      -3.36017233
Pair 2 0, 4 1:      -2.46916753
Pair 2 0, 4 2:      -1.44775666
Pair 2 0, 4 3:      -2.17091647
Pair 2 0, 4 4:      -3.20977131
Pair 2 0, 4 5:      -6.53767164
Pair 2 0, 4 6:      -5.71371984
Pair 2 0, 4 7:       4.75593720
Pair 2 0, 4 8:       5.22951990
Pair 2 0, 4 9:       5.74962711
Pair 2 0, 4 10:       5.24761352
Pair 2 0, 4 11:       4.84251703
Pair 2 0, 4 12:       4.75093626
Pair 2 0, 4 13:      -2.56197120
Pair 2 0, 4 14:      -4.95444836
Pair 2 0, 4 15:      -4.45831046
Pair 2 0, 4 16:      -1.62033787
Pair 2 0, 4 17:      -1.37747671
Pair 2 0, 4 18:      -0.81406588
Pair 2 0, 7 0:      -2.99178292
Pair 2 0, 7 1:      -2.76777223
Pair 2 0, 7 2:      -0.00885214
Pair 2 0, 7 3:      -0.49567104
Pair 2 0, 7 4:      -0.33017052
Pair 2 0, 7 5:      -1.54857633
Pair 2 0, 7 6:       0.18516320
Pair 2 0, 7 7:      -4.56801609
Pair 2 0, 7 8:      -2.34247571
Pair 2 3, 4 0:      -3.32951589
Pair 2 3, 4 1:      -0.02010109
Pair 2 3, 4 2:       0.35587756
Pair 2 3, 4 3:      -0.45121400
Pair 2 3, 4 4:      -3.24986373
Pair 2 3, 4 5:      -8.01765902
Pair 2 3, 4 6:     -10.82529895
Pair 2 3, 4 7:       4.15651099
Pair 2 3, 4 8:       4.46468432
Pair 2 3, 4 9:       4.77012426
Pair 2 3, 4 10:       4.13342133
Pair 2 3, 4 11:       3.97843182
Pair 2 3, 4 12:       3.57597977
Pair 2 3, 4 13:      -2.04037503
Pair 2 3, 4 14:      -5.47061538
Pair 2 3, 4 15:      -6.77355332
Pair 2 3, 4 16:      -2.43209478
Pair 2 3, 4 17:      -1.30795964
Pair 2 3, 4 18:      -0.78977430
Pair 2 3, 7 0:      -3.51943000
Pair 2 3, 7 1:      -3.42016355
Pair 2 3, 7 2:      -0.24934263
Pair 2 3, 7 3:      -0.60297785
Pair 2 3, 7 4:      -0.50971447
Pair 2 3, 7 5:      -2.13547322
Pair 2 3, 7 6:       0.21442360
Pair 2 3, 7 7:      -5.10883201
Pair 2 3, 7 8:      -2.03445382
Pair 2 4, 4 0:      -3.32951589
Pair 2 4, 4 1:      -0.02010109
Pair 2 4, 4 2:       0.35587756
Pair 2 4, 4 3:      -0.45121400
Pair 2 4, 4 4:      -3.24986373
Pair 2 4, 4 5:      -8.01765902
Pair 2 4, 4 6:     -10.82529895
Pair 2 4, 4 7:       4.15651099
Pair 2 4, 4 8:       4.46468432
Pair 2 4, 4 9:       4.77012426
Pair 2 4, 4 10:       4.13342133
Pair 2 4, 4 11:       3.97843182
Pair 2 4, 4 12:       3.57597977
Pair 2 4, 4 13:      -2.04037503
Pair 2 4, 4 14:      -5.47061538
Pair 2 4, 4 15:      -6.77355332
Pair 2 4, 4 16:      -2.43209478
Pair 2 4, 4 17:      -1.30795964
Pair 2 4, 4 18:      -0.78977430
Pair 2 4, 7 0:      -3.51943000
Pair 2 4, 7 1:      -3.42016355
Pair 2 4, 7 2:      -0.24934263
Pair 2 4, 7 3:      -0.60297785
Pair 2 4, 7 4:      -0.50971447
Pair 2 4, 7 5:      -2.13547322
Pair 2 4, 7 6:       0.21442360
Pair 2 4, 7 7:      -5.10883201
Pair 2 4, 7 8:      -2.03445382
Pair 2 5, 4 0:      -3.17800374
Pair 2 5, 4 1:      -0.20817686
Pair 2 5, 4 2:       1.32189911
Pair 2 5, 4 3:      -0.28611906
Pair 2 5, 4 4:      -3.28115607
Pair 2 5, 4 5:      -3.38631384
Pair 2 5, 4 6:      -4.92627270
Pair 2 5, 4 7:       1.06832594
Pair 2 5, 4 8:       1.36396408
Pair 2 5, 4 9:       1.40204330
Pair 2 5, 4 10:       0.41772066
Pair 2 5, 4 11:       0.75729301
Pair 2 5, 4 12:      -0.04086493
Pair 2 5, 4 13:      -2.44158852
Pair 2 5, 4 14:      -3.47254378
Pair 2 5, 4 15:      -4.66786902
Pair 2 5, 4 16:      -3.44484903
Pair 2 5, 4 17:      -2.23403116
Pair 2 5, 4 18:      -2.22134616
Pair 2 5, 7 0:     210.73828993
Pair 2 5, 7 1:     598.72947347
Pair 2 5, 7 2:     601.80999615
Pair 2 5, 7 3:      -3.66062062
Pair 2 5, 7 4:      -3.54339048
Pair 2 5, 7 5:      24.93379114
Pair 2 5, 7 6:      27.37572174
Pair 2 5, 7 7:      69.64685365
Pair 2 5, 7 8:      73.03635681
Pair 3 0, 4 0:      -2.70933300
Pair 3 0, 4 1:      -4.01338402
Pair 3 0, 4 2:      -2.81194246
Pair 3 0, 4 3:      -2.41070431
Pair 3 0, 4 4:      -2.71111138
Pair 3 0, 4 5:      -4.59530215
Pair 3 0, 4 6:      -3.63811880
Pair 3 0, 4 7:      -3.44955893
Pair 3 0, 4 8:      -3.45800229
Pair 3 0, 4 9:      -3.07556460
Pair 3 0, 4 10:      -2.79588230
Pair 3 0, 4 11:      -3.19772744
Pair 3 0, 4 12:      -2.85561128
Pair 3 0, 4 13:      -3.82775756
Pair 3 0, 4 14:      -4.18911658
Pair 3 0, 4 15:      -2.34114699
Pair 3 0, 4 16:      -1.23335385
Pair 3 0, 4 17:      -2.14278041
Pair 3 0, 4 18:      -1.23590928
Pair 3 1, 4 0:       4.15171345
Pair 3 1, 4 1:       6.37512696
Pair 3 1, 4 2:       7.46624253
Pair 3 1, 4 3:       7.26122607
Pair 3 1, 4 4:       6.00372848
Pair 3 1, 4 5:       4.15475821
Pair 3 1, 4 6:       4.02642231
Pair 3 1, 4 7:      -3.77601558
Pair 3 1, 4 8:      -4.08516153
Pair 3 1, 4 9:      -4.20432050
Pair 3 1, 4 10:      -4.04975161
Pair 3 1, 4 11:      -3.68373097
Pair 3 1, 4 12:      -3.82430225
Pair 3 1, 4 13:      -1.64062694
Pair 3 1, 4 14:      -3.33358505
Pair 3 1, 4 15:      -3.70203541
Pair 3 1, 4 16:      -1.11046341
Pair 3 1, 4 17:      -0.29948367
Pair 3 1, 4 18:       0.04268137
Pair 3 2, 4 0:       7.77931583
Pair 3 2, 4 1:      10.61012724
Pair 3 2, 4 2:      12.10088559
Pair 3 2, 4 3:      11.92307047
Pair 3 2, 4 4:      10.51224020
Pair 3 2, 4 5:       7.21906865
Pair 3 2, 4 6:       7.33628206
Pair 3 2, 4 7:      -4.77689603
Pair 3 2, 4 8:      -4.54460211
Pair 3 2, 4 9:      -4.27389586
Pair 3 2, 4 10:      -4.55689948
Pair 3 2, 4 11:      -4.75211399
Pair 3 2, 4 12:      -4.83033715
Pair 3 2, 4 13:      -2.10867450
Pair 3 2, 4 14:      -4.01167403
Pair 3 2, 4 15:      -4.66375205
Pair 3 2, 4 16:      -1.40582066
Pair 3 2, 4 17:      -0.72295262
Pair 3 2, 4 18:      -0.19411797
Pair 3 3, 4 0:      -3.38804219
Pair 3 3, 4 1:      -4.75399717
Pair 3 3, 4 2:      -3.48971477
Pair 3 3, 4 3:      -3.04989703
Pair 3 3, 4 4:      -3.40807205
Pair 3 3, 4 5:      -5.31702320
Pair 3 3, 4 6:      -4.35781988
Pair 3 3, 4 7:      -3.83342768
Pair 3 3, 4 8:      -3.98199586
Pair 3 3, 4 9:      -3.51545582
Pair 3 3, 4 10:      -3.06902464
Pair 3 3, 4 11:      -3.47941126
Pair 3 3, 4 12:      -3.08037803
Pair 3 3, 4 13:      -4.66208535
Pair 3 3, 4 14:      -4.52637603
Pair 3 3, 4 15:      -2.36768746
Pair 3 3, 4 16:      -1.29254008
Pair 3 3, 4 17:      -2.73086093
Pair 3 3, 4 18:      -1.45793246
Pair 3 4, 4 0:      -3.83864618
Pair 3 4, 4 1:      -4.19838110
Pair 3 4, 4 2:      -3.28453606
Pair 3 4, 4 3:      -3.16442343
Pair 3 4, 4 4:      -3.89834747
Pair 3 4, 4 5:      -5.10584775
Pair 3 4, 4 6:      -4.92531985
Pair 3 4, 4 7:      -3.24435550
Pair 3 4, 4 8:      -3.75655190
Pair 3 4, 4 9:      -3.68470388
Pair 3 4, 4 10:      -3.13905017
Pair 3 4, 4 11:      -2.97613944
Pair 3 4, 4 12:      -2.87923809
Pair 3 4, 4 13:      -3.06632088
Pair 3 4, 4 14:      -3.47949711
Pair 3 4, 4 15:      -1.98515619
Pair 3 4, 4 16:      -0.57632231
Pair 3 4, 4 17:      -1.46222397
Pair 3 4, 4 18:      -0.41058501
Pair 3 5, 4 0:      18.37291088
Pair 3 5, 4 1:      27.17769259
Pair 3 5, 4 2:      27.68535031
Pair 3 5, 4 3:      27.95235019
Pair 3 5, 4 4:      26.24927619
Pair 3 5, 4 5:      25.35751667
Pair 3 5, 4 6:      24.11134069
Pair 3 5, 4 7:      -7.33828467
Pair 3 5, 4 8:      -9.37351270
Pair 3 5, 4 9:      -9.14892318
Pair 3 5, 4 10:      -7.20392887
Pair 3 5, 4 11:      -6.81984472
Pair 3 5, 4 12:      -6.65568690
Pair 3 5, 4 13:       2.20225044
Pair 3 5, 4 14:       1.28997648
Pair 3 5, 4 15:       9.72890321
Pair 3 5, 4 16:      14.00150764
Pair 3 5, 4 17:       5.33567137
Pair 3 5, 4 18:      13.03876649
Pair 3 6, 4 0:      -2.08334723
Pair 3 6, 4 1:      -3.15000424
Pair 3 6, 4 2:      -2.01478475
Pair 3 6, 4 3:      -1.74183220
Pair 3 6, 4 4:      -2.08792243
Pair 3 6, 4 5:      -3.92044471
Pair 3 6, 4 6:      -3.10697685
Pair 3 6, 4 7:      -3.22922898
Pair 3 6, 4 8:      -2.94073200
Pair 3 6, 4 9:      -2.54756196
Pair 3 6, 4 10:      -2.60035387
Pair 3 6, 4 11:      -3.10040436
Pair 3 6, 4 12:      -2.86294832
Pair 3 6, 4 13:      -3.01083900
Pair 3 6, 4 14:      -3.69419798
Pair 3 6, 4 15:      -2.38613161
Pair 3 6, 4 16:      -1.07128492
Pair 3 6, 4 17:      -1.47257278
Pair 3 6, 4 18:      -0.75883057
Pair 3 7, 4 0:      -2.77145715
Pair 3 7, 4 1:      -3.26621757
Pair 3 7, 4 2:      -2.34127434
Pair 3 7, 4 3:      -2.21411313
Pair 3 7, 4 4:      -2.79885418
Pair 3 7, 4 5:      -4.16605950
Pair 3 7, 4 6:      -3.81651892
Pair 3 7, 4 7:      -2.96721020
Pair 3 7, 4 8:      -3.12701213
Pair 3 7, 4 9:      -3.02039567
Pair 3 7, 4 10:      -2.79031528
Pair 3 7, 4 11:      -2.80798173
Pair 3 7, 4 12:      -2.70919031
Pair 3 7, 4 13:      -2.44223852
Pair 3 7, 4 14:      -3.47958648
Pair 3 7, 4 15:      -2.17467058
Pair 3 7, 4 16:      -0.64514485
Pair 3 7, 4 17:      -0.88815757
Pair 3 7, 4 18:      -0.23522714
Pair 3 8, 4 0:      -2.52166720
Pair 3 8, 4 1:      -3.91189511
Pair 3 8, 4 2:      -2.68369624
Pair 3 8, 4 3:      -2.26236430
Pair 3 8, 4 4:      -2.51753387
Pair 3 8, 4 5:      -4.47575778
Pair 3 8, 4 6:      -3.44688766
Pair 3 8, 4 7:      -3.45699702
Pair 3 8, 4 8:      -3.37362017
Pair 3 8, 4 9:      -2.98896828
Pair 3 8, 4 10:      -2.77921128
Pair 3 8, 4 11:      -3.23881415
Pair 3 8, 4 12:      -2.88636178
Pair 3 8, 4 13:      -3.81422390
Pair 3 8, 4 14:      -4.26979624
Pair 3 8, 4 15:      -2.41855321
Pair 3 8, 4 16:      -1.29633449
Pair 3 8, 4 17:      -2.08400593
Pair 3 8, 4 18:      -1.24957043
Pair 4 0, 5 0:       1.41582206
Pair 4 0, 5 1:      -2.42454455
Pair 4 0, 5 2:      -1.38081870
Pair 4 0, 5 3:      -1.05397771
Pair 4 0, 5 4:       0.82415791
Pair 4 0, 5 5:      -1.81939886
Pair 4 0, 5 6:       2.25796479
Pair 4 0, 5 7:       7.71839927
Pair 4 0, 5 8:       7.84556220
Pair 4 0, 5 9:       8.02290057
Pair 4 0, 5 10:       8.11611954
Pair 4 0, 5 11:       7.81220872
Pair 4 0, 5 12:       8.03080188
Pair 4 0, 5 13:      -0.76766336
Pair 4 0, 5 14:      -0.32555370
Pair 4 0, 5 15:       0.60115475
Pair 4 0, 5 16:       0.05848230
Pair 4 0, 5 17:      -0.69659440
Pair 4 0, 5 18:      -0.61663474
Pair 4 1, 5 0:       2.54149908
Pair 4 1, 5 1:       0.68136309
Pair 4 1, 5 2:       1.95107730
Pair 4 1, 5 3:       1.88028579
Pair 4 1, 5 4:       1.91212307
Pair 4 1, 5 5:      -3.48027988
Pair 4 1, 5 6:      -0.58075281
Pair 4 1, 5 7:       3.26458581
Pair 4 1, 5 8:       3.26375024
Pair 4 1, 5 9:       3.31209384
Pair 4 1, 5 10:       3.09097690
Pair 4 1, 5 11:       3.01412151
Pair 4 1, 5 12:       2.77462069
Pair 4 1, 5 13:      -1.02019354
Pair 4 1, 5 14:      -0.85600864
Pair 4 1, 5 15:      -0.81319112
Pair 4 1, 5 16:      -1.13919557
Pair 4 1, 5 17:      -1.36273829
Pair 4 1, 5 18:      -1.41732244
Pair 4 2, 5 0:      -0.49583139
Pair 4 2, 5 1:      -0.44516623
Pair 4 2, 5 2:      -0.61706839
Pair 4 2, 5 3:      -0.17378431
Pair 4 2, 5 4:      -0.68913661
Pair 4 2, 5 5:       2.12459777
Pair 4 2, 5 6:      -1.15863344
Pair 4 2, 5 7:       6.72962135
Pair 4 2, 5 8:       6.73754510
Pair 4 2, 5 9:       6.68731669
Pair 4 2, 5 10:       6.63639305
Pair 4 2, 5 11:       6.54522839
Pair 4 2, 5 12:       6.51808702
Pair 4 2, 5 13:      -1.28629735
Pair 4 2, 5 14:      -0.72789663
Pair 4 2, 5 15:      -0.59976793
Pair 4 2, 5 16:      -1.38692841
Pair 4 2, 5 17:      -1.47167644
Pair 4 2, 5 18:      -1.57205950
Pair 4 3, 5 0:      -4.64783542
Pair 4 3, 5 1:      -5.20717070
Pair 4 3, 5 2:      -5.99773250
Pair 4 3, 5 3:      -5.23378231
Pair 4 3, 5 4:      -4.58526023
Pair 4 3, 5 5:      16.95759118
Pair 4 3, 5 6:       6.01053771
Pair 4 3, 5 7:      28.90853636
Pair 4 3, 5 8:      29.04123223
Pair 4 3, 5 9:      29.10857196
Pair 4 3, 5 10:      29.35319419
Pair 4 3, 5 11:      29.15496583
Pair 4 3, 5 12:      29.56924609
Pair 4 3, 5 13:      -0.83695240
Pair 4 3, 5 14:       0.22301606
Pair 4 3, 5 15:       1.34284722
Pair 4 3, 5 16:      -0.03345732
Pair 4 3, 5 17:      -0.54921405
Pair 4 3, 5 18:      -0.62133037
Pair 4 4, 5 0:       1.03209703
Pair 4 4, 5 1:      -2.47892759
Pair 4 4, 5 2:      -1.54537273
Pair 4 4, 5 3:      -1.24040312
Pair 4 4, 5 4:       0.54068364
Pair 4 4, 5 5:      -1.81829721
Pair 4 4, 5 6:       1.95666733
Pair 4 4, 5 7:       6.77596943
Pair 4 4, 5 8:       6.90393525
Pair 4 4, 5 9:       7.07874109
Pair 4 4, 5 10:       7.17886295
Pair 4 4, 5 11:       6.87844191
Pair 4 4, 5 12:       7.10631986
Pair 4 4, 5 13:      -0.76766553
Pair 4 4, 5 14:      -0.30071369
Pair 4 4, 5 15:       0.64088465
Pair 4 4, 5 16:       0.06335900
Pair 4 4, 5 17:      -0.68504685
Pair 4 4, 5 18:      -0.60694774
Pair 4 5, 5 0:       2.26609349
Pair 4 5, 5 1:      -0.00728325
Pair 4 5, 5 2:       1.80126887
Pair 4 5, 5 3:       1.69007030
Pair 4 5, 5 4:       1.75862003
Pair 4 5, 5 5:      -3.41793891
Pair 4 5, 5 6:      -0.00287267
Pair 4 5, 5 7:       3.19585616
Pair 4 5, 5 8:       3.23689783
Pair 4 5, 5 9:       3.39093578
Pair 4 5, 5 10:       3.18676380
Pair 4 5, 5 11:       3.05943069
Pair 4 5, 5 12:       2.87360229
Pair 4 5, 5 13:      -1.24383344
Pair 4 5, 5 14:      -0.77432832
Pair 4 5, 5 15:      -0.44179495
Pair 4 5, 5 16:      -0.99800501
Pair 4 5, 5 17:      -1.42387301
Pair 4 5, 5 18:      -1.38425840
Pair 4 6, 5 0:       2.49991866
Pair 4 6, 5 1:      -0.08052545
Pair 4 6, 5 2:       1.69462741
Pair 4 6, 5 3:       1.69708756
Pair 4 6, 5 4:       1.95166641
Pair 4 6, 5 5:      -4.09295866
Pair 4 6, 5 6:      -0.49448207
Pair 4 6, 5 7:       3.18365263
Pair 4 6, 5 8:       3.25713084
Pair 4 6, 5 9:       3.44449334
Pair 4 6, 5 10:       3.31866982
Pair 4 6, 5 11:       3.10334506
Pair 4 6, 5 12:       3.03159144
Pair 4 6, 5 13:      -1.18538854
Pair 4 6, 5 14:      -0.76473749
Pair 4 6, 5 15:      -0.35493433
Pair 4 6, 5 16:      -0.76864745
Pair 4 6, 5 17:      -1.29000917
Pair 4 6, 5 18:      -1.18413380
Pair 4 7, 5 0:       5.22724500
Pair 4 7, 5 1:       3.60497558
Pair 4 7, 5 2:       2.06780044
Pair 4 7, 5 3:       2.43109825
Pair 4 7, 5 4:       2.87918607
Pair 4 7, 5 5:      21.84730806
Pair 4 7, 5 6:       8.70332364
Pair 4 7, 5 7:      51.48672960
Pair 4 7, 5 8:      51.45173282
Pair 4 7, 5 9:      51.32320518
Pair 4 7, 5 10:      51.30472771
Pair 4 7, 5 11:      51.38383815
Pair 4 7, 5 12:      51.32747244
Pair 4 7, 5 13:       0.81955204
Pair 4 7, 5 14:       0.07715229
Pair 4 7, 5 15:      -1.91749305
Pair 4 7, 5 16:      -0.51442782
Pair 4 7, 5 17:       0.32596757
Pair 4 7, 5 18:       0.20320216
Pair 4 8, 5 0:       4.77568094
Pair 4 8, 5 1:       3.03456005
Pair 4 8, 5 2:       1.51101978
Pair 4 8, 5 3:       1.93324561
Pair 4 8, 5 4:       2.46674119
Pair 4 8, 5 5:      21.57407594
Pair 4 8, 5 6:       8.58560063
Pair 4 8, 5 7:      51.40524529
Pair 4 8, 5 8:      51.36272510
Pair 4 8, 5 9:      51.28303258
Pair 4 8, 5 10:      51.33336261
Pair 4 8, 5 11:      51.34128420
Pair 4 8, 5 12:      51.34506952
Pair 4 8, 5 13:       0.71867298
Pair 4 8, 5 14:      -0.55336938
Pair 4 8, 5 15:      -1.73914848
Pair 4 8, 5 16:       0.02621938
Pair 4 8, 5 17:       0.67775931
Pair 4 8, 5 18:       0.67183438
Pair 4 9, 5 0:       5.13284817
Pair 4 9, 5 1:       3.00731792
Pair 4 9, 5 2:       1.52164689
Pair 4 9, 5 3:       2.08477566
Pair 4 9, 5 4:       2.80580769
Pair 4 9, 5 5:      21.48569734
Pair 4 9, 5 6:       8.60176841
Pair 4 9, 5 7:      51.41054588
Pair 4 9, 5 8:      51.38050491
Pair 4 9, 5 9:      51.37048610
Pair 4 9, 5 10:      51.48110329
Pair 4 9, 5 11:      51.35428925
Pair 4 9, 5 12:      51.42943946
Pair 4 9, 5 13:       0.56475614
Pair 4 9, 5 14:      -0.71415431
Pair 4 9, 5 15:      -1.60257332
Pair 4 9, 5 16:       0.34195353
Pair 4 9, 5 17:       0.62081782
Pair 4 9, 5 18:       0.74879891
Pair 4 10, 5 0:       5.53415488
Pair 4 10, 5 1:       2.29861653
Pair 4 10, 5 2:       0.98781203
Pair 4 10, 5 3:       1.58830057
Pair 4 10, 5 4:       3.11118627
Pair 4 10, 5 5:      20.95581896
Pair 4 10, 5 6:       9.55327509
Pair 4 10, 5 7:      51.41359425
Pair 4 10, 5 8:      51.41008997
Pair 4 10, 5 9:      51.48744772
Pair 4 10, 5 10:      51.69960413
Pair 4 10, 5 11:      51.40103219
Pair 4 10, 5 12:      51.61541883
Pair 4 10, 5 13:      -0.04228063
Pair 4 10, 5 14:      -1.05620728
Pair 4 10, 5 15:      -0.14186674
Pair 4 10, 5 16:       0.86190144
Pair 4 10, 5 17:       0.22786676
Pair 4 10, 5 18:       0.33768444
Pair 4 11, 5 0:       6.48332645
Pair 4 11, 5 1:       5.75933705
Pair 4 11, 5 2:       4.51063950
Pair 4 11, 5 3:       4.84063614
Pair 4 11, 5 4:       5.23835586
Pair 4 11, 5 5:      23.65046144
Pair 4 11, 5 6:      10.84864730
Pair 4 11, 5 7:      51.27884372
Pair 4 11, 5 8:      51.28429133
Pair 4 11, 5 9:      51.20023680
Pair 4 11, 5 10:      51.15926995
Pair 4 11, 5 11:      51.18284547
Pair 4 11, 5 12:      51.16338921
Pair 4 11, 5 13:      -0.85435252
Pair 4 11, 5 14:       1.47986477
Pair 4 11, 5 15:      -0.29107671
Pair 4 11, 5 16:      -1.98506747
Pair 4 11, 5 17:      -1.58077138
Pair 4 11, 5 18:      -1.70677610
Pair 4 12, 5 0:       5.49742877
Pair 4 12, 5 1:       3.50613538
Pair 4 12, 5 2:       2.55059967
Pair 4 12, 5 3:       2.86210297
Pair 4 12, 5 4:       4.21567172
Pair 4 12, 5 5:      22.12740619
Pair 4 12, 5 6:      11.35782446
Pair 4 12, 5 7:      51.01249981
Pair 4 12, 5 8:      51.03426758
Pair 4 12, 5 9:      51.10307963
Pair 4 12, 5 10:      51.24016696
Pair 4 12, 5 11:      51.01173704
Pair 4 12, 5 12:      51.20239993
Pair 4 12, 5 13:      -2.14939539
Pair 4 12, 5 14:      -0.41411334
Pair 4 12, 5 15:       2.68025840
Pair 4 12, 5 16:      -0.78057380
Pair 4 12, 5 17:      -1.69360964
Pair 4 12, 5 18:      -1.93623768
Pair 4 13, 5 0:       7.20546330
Pair 4 13, 5 1:      19.37676329
Pair 4 13, 5 2:      19.35613134
Pair 4 13, 5 3:      19.32779069
Pair 4 13, 5 4:      19.36770603
Pair 4 13, 5 5:      18.83125985
Pair 4 13, 5 6:      18.78752946
Pair 4 13, 5 7:      -0.65829312
Pair 4 13, 5 8:      -0.61524310
Pair 4 13, 5 9:      -0.65652171
Pair 4 13, 5 10:      -0.74194132
Pair 4 13, 5 11:      -0.75893699
Pair 4 13, 5 12:      -0.79088348
Pair 4 13, 5 13:      -0.79049368
Pair 4 13, 5 14:       1.34996576
Pair 4 13, 5 15:       0.34104090
Pair 4 13, 5 16:      -1.45232813
Pair 4 13, 5 17:      -1.45482565
Pair 4 13, 5 18:      -1.50937124
Pair 4 14, 5 0:       7.16816905
Pair 4 14, 5 1:      19.32850390
Pair 4 14, 5 2:      19.33762292
Pair 4 14, 5 3:      19.31808901
Pair 4 14, 5 4:      19.32500949
Pair 4 14, 5 5:      18.72217660
Pair 4 14, 5 6:      18.66538186
Pair 4 14, 5 7:      -0.67862467
Pair 4 14, 5 8:      -0.64564351
Pair 4 14, 5 9:      -0.69470293
Pair 4 14, 5 10:      -0.76180809
Pair 4 14, 5 11:      -0.77772951
Pair 4 14, 5 12:      -0.79820049
Pair 4 14, 5 13:      -0.79426100
Pair 4 14, 5 14:       1.30248590
Pair 4 14, 5 15:       0.31724727
Pair 4 14, 5 16:      -1.43260954
Pair 4 14, 5 17:      -1.43137270
Pair 4 14, 5 18:      -1.48237193
Pair 4 15, 5 0:       7.15795498
Pair 4 15, 5 1:      19.08408967
Pair 4 15, 5 2:      19.10481003
Pair 4 15, 5 3:      19.18772317
Pair 4 15, 5 4:      19.31881427
Pair 4 15, 5 5:      18.59952378
Pair 4 15, 5 6:      18.65762388
Pair 4 15, 5 7:      -0.67356503
Pair 4 15, 5 8:      -0.63196107
Pair 4 15, 5 9:      -0.66160064
Pair 4 15, 5 10:      -0.66542577
Pair 4 15, 5 11:      -0.73812614
Pair 4 15, 5 12:      -0.68191994
Pair 4 15, 5 13:      -0.77638671
Pair 4 15, 5 14:       1.26090416
Pair 4 15, 5 15:       0.38459248
Pair 4 15, 5 16:      -1.26961733
Pair 4 15, 5 17:      -1.33601642