Self 0 0:      -8.63756524
Self 0 1:       5.41469883
Self 0 2:      -0.04184039
Self 0 3:       4.27835776
Self 0 4:     -15.56634547
Self 0 5:     -17.60404969
Self 0 6:     -16.02161534
Self 0 7:      38.52610643
Self 0 8:      28.71392631
Self 0 9:      -8.77063304
Self 0 10:     -17.87926191
Self 0 11:      -5.21404907
Self 0 12:      -0.04184039
Self 0 13:       4.27835776
Self 0 14:     -15.56634547
Self 0 15:     -17.60404969
Self 0 16:     -16.02161534
Self 0 17:      38.52610643
Self 0 18:      28.71392631
Self 0 19:      -8.77063304
Self 0 20:     -17.87926191
Self 0 21:      -5.21404907
Self 0 22:      -6.29319330
Self 0 23:      -6.29319330
Self 0 24:     -20.04167217
Self 0 25:     -20.04167217
Self 0 26:     -16.64221231
Self 1 0:     -13.31764679
Self 1 1:      -4.03379664
Self 1 2:     -12.00009609
Self 1 3:      -3.10441466
Self 1 4:     -10.67444655
Self 1 5:     -13.14758819
Self 1 6:     -13.54020477
Self 1 7:     -10.59086751
Self 1 8:     -13.57789032
Self 1 9:     -13.44331656
Self 1 10:      -8.77061079
Self 1 11:      17.94856319
Self 1 12:      -8.63507818
Self 1 13:     -10.46022490
Self 1 14:      -4.27812170
Self 1 15:      -6.43170449
Self 1 16:     -10.64559449
Self 1 17:     -10.75962361
Self 1 18:     -12.00009609
Self 1 19:      -3.10441466
Self 1 20:     -10.67444655
Self 1 21:     -13.14758819
Self 1 22:     -13.54020477
Self 1 23:     -10.59086751
Self 1 24:     -13.57789032
Self 1 25:     -13.44331656
Self 1 26:      -8.77061079
Self 1 27:      17.94856319
Self 1 28:      -8.63507818
Self 1 29:     -10.46022490
Self 1 30:      -4.27812170
Self 1 31:      -6.43170449
Self 1 32:     -10.64559449
Self 1 33:     -10.75962361
Self 1 34:     -15.32935024
Self 1 35:      -2.38380781
Self 1 36:     -13.80097934
Self 1 37:     -16.34163293
Self 1 38:     -10.43117762
Self 1 39:     -12.62171336
Self 1 40:     -17.74621771
Self 1 41:     -14.47959534
Self 2 0:     -45.55246852
Self 2 1:     -45.28670144
Self 2 2:     -47.05711431
Self 2 3:     -45.78313939
Self 2 4:     -45.64282154
Self 2 5:     -38.77113140
Self 2 6:     -47.95803165
Self 2 7:     -49.19210542
Self 2 8:     -50.96352600
Self 2 9:     -43.48892494
Self 2 10:     -48.84305862
Self 2 11:     -44.98208023
Self 2 12:     -44.85297693
Self 2 13:     -39.55953350
Self 2 14:     -49.68197134
Self 2 15:     -49.85134023
Self 2 16:     -51.13154802
Self 2 17:     -42.50275568
Self 2 18:     -50.03141323
Self 2 19:     -47.52312405
Self 2 20:     -41.97053401
Self 2 21:     -39.34806856
Self 2 22:     -49.54536833
Self 2 23:     -52.01075201
Self 2 24:     -51.44737510
Self 2 25:     -40.88715945
Self 2 26:     -51.73149584
Self 3 0:     -40.37285199
Self 3 1:     -35.02152464
Self 3 2:     -33.96355931
Self 3 3:     -33.13021057
Self 3 4:     -34.66967882
Self 3 5:     -32.43045092
Self 3 6:     -33.18663174
Self 3 7:     -32.98419093
Self 3 8:     -35.01288984
Self 3 9:     -32.82484151
Self 3 10:     -33.90093153
Self 3 11:     -35.46197404
Self 3 12:     -35.83341060
Self 3 13:     -36.82752347
Self 3 14:     -34.46570841
Self 3 15:     -35.58329792
Self 3 16:     -33.02140494
Self 3 17:     -14.22369705
Self 3 18:       6.16341171
Self 3 19:     -37.93949043
Self 3 20:     -40.63856949
Self 3 21:     -40.41919099
Self 3 22:     -38.63909666
Self 3 23:     -38.32729320
Self 3 24:     -36.15236177
Self 3 25:     -38.23303593
Self 3 26:     -38.80697743
Self 3 27:     -35.68774160
Self 3 28:     -36.05460046
Self 3 29:     -38.13141768
Self 3 30:     -37.57835172
Self 3 31:     -39.93241245
Self 3 32:     -37.27275698
Self 3 33:     -37.71600647
Self 3 34:     -35.04332853
Self 3 35:     -39.12856308
Self 3 36:     -36.93670772
Self 3 37:     -36.88946341
Self 3 38:     -39.99685878
Self 3 39:     -39.71859155
Self 3 40:     -42.22912892
Self 3 41:     -39.44229385
Self 3 42:     -40.11093846
Self 3 43:     -37.57729947
Self 3 44:     -16.51975801
Self 3 45:      10.38596926
Self 3 46:     -41.78844713
Self 3 47:     -43.35409256
Self 3 48:     -44.85276303
Self 3 49:     -43.01034065
Self 3 50:     -41.98825450
Self 3 51:     -39.58856539
Self 3 52:     -42.04295726
Self 3 53:     -43.67596076
Self 3 54:     -41.32619544
Self 3 55:     -39.47128092
Pair 0 0, 1 0:       1.02539991
Pair 0 0, 1 1:      -0.13316773
Pair 0 0, 1 2:      -0.35289243
Pair 0 0, 1 3:       1.34319321
Pair 0 0, 1 4:       0.08272990
Pair 0 0, 1 5:      -0.08323413
Pair 0 0, 1 6:      -0.09485800
Pair 0 0, 1 7:     134.30935203
Pair 0 0, 1 8:       1.02483579
Pair 0 0, 1 9:       1.49344784
Pair 0 0, 1 10:      -0.34387483
Pair 0 0, 1 12:       0.03629170
Pair 0 0, 1 13:      -0.13993332
Pair 0 0, 1 14:      -0.11124047
Pair 0 0, 1 15:      49.96873025
Pair 0 0, 1 16:       0.54961420
Pair 0 0, 1 17:       1.61415144
Pair 0 0, 1 18:      -0.35289243
Pair 0 0, 1 19:       1.34319321
Pair 0 0, 1 20:       0.08272990
Pair 0 0, 1 21:      -0.08323413
Pair 0 0, 1 22:      -0.09485800
Pair 0 0, 1 23:     134.30935203
Pair 0 0, 1 24:       1.02483579
Pair 0 0, 1 25:       1.49344784
Pair 0 0, 1 26:      -0.34387483
Pair 0 0, 1 28:       0.03629170
Pair 0 0, 1 29:      -0.13993332
Pair 0 0, 1 30:      -0.11124047
Pair 0 0, 1 31:      49.96873025
Pair 0 0, 1 32:       0.54961420
Pair 0 0, 1 33:       1.61415144
Pair 0 0, 1 34:       1.16348714
Pair 0 0, 1 35:       6.18709580
Pair 0 0, 1 36:       1.50246733
Pair 0 0, 1 37:       0.93875080
Pair 0 0, 1 38:       0.81285779
Pair 0 0, 1 39:      82.29836983
Pair 0 0, 1 40:       6.69749595
Pair 0 0, 1 41:       9.47962327
Pair 0 2, 1 0:      -0.08002165
Pair 0 2, 1 1:      -0.00894865
Pair 0 2, 1 2:       0.02346194
Pair 0 2, 1 3:      -0.06376901
Pair 0 2, 1 4:      -0.02155774
Pair 0 2, 1 5:      -0.00942053
Pair 0 2, 1 6:      -0.01817253
Pair 0 2, 1 7:       5.97401850
Pair 0 2, 1 8:       0.70871314
Pair 0 2, 1 9:       0.57401417
Pair 0 2, 1 10:       0.02010660
Pair 0 2, 1 12:      -0.01386438
Pair 0 2, 1 13:      -0.00791098
Pair 0 2, 1 14:      -0.02283696
Pair 0 2, 1 15:       0.58667017
Pair 0 2, 1 16:       0.75348689
Pair 0 2, 1 17:       0.58276102
Pair 0 2, 1 18:       0.02346194
Pair 0 2, 1 19:      -0.06376901
Pair 0 2, 1 20:      -0.02155774
Pair 0 2, 1 21:      -0.00942053
Pair 0 2, 1 22:      -0.01817253
Pair 0 2, 1 23:       5.97401850
Pair 0 2, 1 24:       0.70871314
Pair 0 2, 1 25:       0.57401417
Pair 0 2, 1 26:       0.02010660
Pair 0 2, 1 28:      -0.01386438
Pair 0 2, 1 29:      -0.00791098
Pair 0 2, 1 30:      -0.02283696
Pair 0 2, 1 31:       0.58667017
Pair 0 2, 1 32:       0.75348689
Pair 0 2, 1 33:       0.58276102
Pair 0 2, 1 34:      -0.07453606
Pair 0 2, 1 35:       0.20919228
Pair 0 2, 1 36:      -0.09830211
Pair 0 2, 1 37:      -0.07166784
Pair 0 2, 1 38:      -0.07768136
Pair 0 2, 1 39:       0.82347293
Pair 0 2, 1 40:       0.51357726
Pair 0 2, 1 41:       0.31549744
Pair 0 3, 1 0:      -0.07515957
Pair 0 3, 1 1:      -0.01002052
Pair 0 3, 1 2:       0.00422914
Pair 0 3, 1 3:       0.04366896
Pair 0 3, 1 4:      -0.02308781
Pair 0 3, 1 5:      -0.01014138
Pair 0 3, 1 6:      -0.01895087
Pair 0 3, 1 7:       6.04122168
Pair 0 3, 1 8:       0.68450457
Pair 0 3, 1 9:       0.56126582
Pair 0 3, 1 10:       0.00318380
Pair 0 3, 1 12:      -0.01534243
Pair 0 3, 1 13:      -0.00944555
Pair 0 3, 1 14:      -0.02456260
Pair 0 3, 1 15:       0.27538513
Pair 0 3, 1 16:       0.72638475
Pair 0 3, 1 17:       0.56912099
Pair 0 3, 1 18:       0.00422914
Pair 0 3, 1 19:       0.04366896
Pair 0 3, 1 20:      -0.02308781
Pair 0 3, 1 21:      -0.01014138
Pair 0 3, 1 22:      -0.01895087
Pair 0 3, 1 23:       6.04122168
Pair 0 3, 1 24:       0.68450457
Pair 0 3, 1 25:       0.56126582
Pair 0 3, 1 26:       0.00318380
Pair 0 3, 1 28:      -0.01534243
Pair 0 3, 1 29:      -0.00944555
Pair 0 3, 1 30:      -0.02456260
Pair 0 3, 1 31:       0.27538513
Pair 0 3, 1 32:       0.72638475
Pair 0 3, 1 33:       0.56912099
Pair 0 3, 1 34:      -0.04695949
Pair 0 3, 1 35:       0.86419824
Pair 0 3, 1 36:      -0.09792691
Pair 0 3, 1 37:      -0.06789211
Pair 0 3, 1 38:      -0.07485857
Pair 0 3, 1 39:       1.70130955
Pair 0 3, 1 40:       0.53260074
Pair 0 3, 1 41:       0.34456055
Pair 0 4, 1 0:      -0.03588473
Pair 0 4, 1 1:      -0.06147639
Pair 0 4, 1 2:      -0.03559081
Pair 0 4, 1 3:      -0.52457051
Pair 0 4, 1 4:      -0.01081466
Pair 0 4, 1 5:      -0.05254305
Pair 0 4, 1 6:      -0.06399145
Pair 0 4, 1 7:     140.90660541
Pair 0 4, 1 8:      -1.27193658
Pair 0 4, 1 9:      -0.24261535
Pair 0 4, 1 10:      -0.04641296
Pair 0 4, 1 12:      -0.04433248
Pair 0 4, 1 13:      -0.05236673
Pair 0 4, 1 14:      -0.07822574
Pair 0 4, 1 15:      36.19736105
Pair 0 4, 1 16:      -1.01193595
Pair 0 4, 1 17:       0.32282933
Pair 0 4, 1 18:      -0.03559081
Pair 0 4, 1 19:      -0.52457051
Pair 0 4, 1 20:      -0.01081466
Pair 0 4, 1 21:      -0.05254305
Pair 0 4, 1 22:      -0.06399145
Pair 0 4, 1 23:     140.90660541
Pair 0 4, 1 24:      -1.27193658
Pair 0 4, 1 25:      -0.24261535
Pair 0 4, 1 26:      -0.04641296
Pair 0 4, 1 28:      -0.04433248
Pair 0 4, 1 29:      -0.05236673
Pair 0 4, 1 30:      -0.07822574
Pair 0 4, 1 31:      36.19736105
Pair 0 4, 1 32:      -1.01193595
Pair 0 4, 1 33:       0.32282933
Pair 0 4, 1 34:       0.04581099
Pair 0 4, 1 35:       0.45817779
Pair 0 4, 1 36:       0.26746219
Pair 0 4, 1 37:      -0.03174246
Pair 0 4, 1 38:       0.01131995
Pair 0 4, 1 39:      41.44568912
Pair 0 4, 1 40:       0.04784268
Pair 0 4, 1 41:       2.95174726
Pair 0 5, 1 0:      -0.03095203
Pair 0 5, 1 1:       0.15952531
Pair 0 5, 1 2:       0.21537799
Pair 0 5, 1 3:      -0.60738280
Pair 0 5, 1 4:       0.17584903
Pair 0 5, 1 5:       0.20134879
Pair 0 5, 1 6:       0.10377440
Pair 0 5, 1 7:   16178.92907813
Pair 0 5, 1 8:       0.75311039
Pair 0 5, 1 9:       1.41345710
Pair 0 5, 1 10:       0.19939947
Pair 0 5, 1 12:       0.15133756
Pair 0 5, 1 13:       0.18971168
Pair 0 5, 1 14:       0.08280558
Pair 0 5, 1 15:    7172.93644504
Pair 0 5, 1 16:       1.50172517
Pair 0 5, 1 17:       1.51653486
Pair 0 5, 1 18:       0.21537799
Pair 0 5, 1 19:      -0.60738280
Pair 0 5, 1 20:       0.17584903
Pair 0 5, 1 21:       0.20134879
Pair 0 5, 1 22:       0.10377440
Pair 0 5, 1 23:   16178.92907813
Pair 0 5, 1 24:       0.75311039
Pair 0 5, 1 25:       1.41345710
Pair 0 5, 1 26:       0.19939947
Pair 0 5, 1 28:       0.15133756
Pair 0 5, 1 29:       0.18971168
Pair 0 5, 1 30:       0.08280558
Pair 0 5, 1 31:    7172.93644504
Pair 0 5, 1 32:       1.50172517
Pair 0 5, 1 33:       1.51653486
Pair 0 5, 1 34:       0.00972938
Pair 0 5, 1 35:       0.21399189
Pair 0 5, 1 36:       0.00309718
Pair 0 5, 1 37:       0.02135386
Pair 0 5, 1 38:      -0.13251214
Pair 0 5, 1 39:    4701.21951298
Pair 0 5, 1 40:       1.63224565
Pair 0 5, 1 41:       0.80544411
Pair 0 6, 1 0:      -0.06698087
Pair 0 6, 1 1:       0.00614680
Pair 0 6, 1 2:       0.03905366
Pair 0 6, 1 3:       0.08782139
Pair 0 6, 1 4:      -0.00463450
Pair 0 6, 1 5:       0.00412837
Pair 0 6, 1 6:      -0.00481022
Pair 0 6, 1 7:       6.56976370
Pair 0 6, 1 8:       0.70032745
Pair 0 6, 1 9:       0.57142720
Pair 0 6, 1 10:       0.03741157
Pair 0 6, 1 12:       0.00390979
Pair 0 6, 1 13:       0.00632009
Pair 0 6, 1 14:      -0.01100032
Pair 0 6, 1 15:       0.77953947
Pair 0 6, 1 16:       0.74737793
Pair 0 6, 1 17:       0.57997519
Pair 0 6, 1 18:       0.03905366
Pair 0 6, 1 19:       0.08782139
Pair 0 6, 1 20:      -0.00463450
Pair 0 6, 1 21:       0.00412837
Pair 0 6, 1 22:      -0.00481022
Pair 0 6, 1 23:       6.56976370
Pair 0 6, 1 24:       0.70032745
Pair 0 6, 1 25:       0.57142720
Pair 0 6, 1 26:       0.03741157
Pair 0 6, 1 28:       0.00390979
Pair 0 6, 1 29:       0.00632009
Pair 0 6, 1 30:      -0.01100032
Pair 0 6, 1 31:       0.77953947
Pair 0 6, 1 32:       0.74737793
Pair 0 6, 1 33:       0.57997519
Pair 0 6, 1 34:      -0.07646700
Pair 0 6, 1 35:      -0.26289412
Pair 0 6, 1 36:      -0.07938488
Pair 0 6, 1 37:      -0.05835838
Pair 0 6, 1 38:      -0.06589257
Pair 0 6, 1 39:       0.25661439
Pair 0 6, 1 40:       0.51028512
Pair 0 6, 1 41:       0.31143266
Pair 0 9, 1 0:      -0.03935611
Pair 0 9, 1 1:       0.02019763
Pair 0 9, 1 2:       0.12590824
Pair 0 9, 1 3:      -0.46704827
Pair 0 9, 1 4:      -0.07007352
Pair 0 9, 1 5:       0.02507491
Pair 0 9, 1 6:      -0.02283240
Pair 0 9, 1 7:      99.91142645
Pair 0 9, 1 8:       0.48823826
Pair 0 9, 1 9:      -1.65552349
Pair 0 9, 1 10:       0.11273040
Pair 0 9, 1 12:      -0.08190463
Pair 0 9, 1 13:       0.01403206
Pair 0 9, 1 14:      -0.03634920
Pair 0 9, 1 15:      23.78029457
Pair 0 9, 1 16:       0.70937173
Pair 0 9, 1 17:      -1.60661686
Pair 0 9, 1 18:       0.12590824
Pair 0 9, 1 19:      -0.46704827
Pair 0 9, 1 20:      -0.07007352
Pair 0 9, 1 21:       0.02507491
Pair 0 9, 1 22:      -0.02283240
Pair 0 9, 1 23:      99.91142645
Pair 0 9, 1 24:       0.48823826
Pair 0 9, 1 25:      -1.65552349
Pair 0 9, 1 26:       0.11273040
Pair 0 9, 1 28:      -0.08190463
Pair 0 9, 1 29:       0.01403206
Pair 0 9, 1 30:      -0.03634920
Pair 0 9, 1 31:      23.78029457
Pair 0 9, 1 32:       0.70937173
Pair 0 9, 1 33:      -1.60661686
Pair 0 9, 1 34:       0.03249657
Pair 0 9, 1 35:      -0.30592435
Pair 0 9, 1 36:      -0.16331720
Pair 0 9, 1 37:      -0.02571336
Pair 0 9, 1 38:      -0.09168281
Pair 0 9, 1 39:      28.28226892
Pair 0 9, 1 40:       1.33225321
Pair 0 9, 1 41:      -1.94599171
Pair 0 10, 1 0:       0.24529948
Pair 0 10, 1 1:       0.06118325
Pair 0 10, 1 2:      -0.01142625
Pair 0 10, 1 3:       0.25649643
Pair 0 10, 1 4:       0.01198083
Pair 0 10, 1 5:       0.06377327
Pair 0 10, 1 6:       0.06754018
Pair 0 10, 1 7:    2399.41609711
Pair 0 10, 1 8:      -0.38893703
Pair 0 10, 1 9:      -0.83100539
Pair 0 10, 1 10:       0.00097944
Pair 0 10, 1 12:       0.02790057
Pair 0 10, 1 13:       0.03997344
Pair 0 10, 1 14:       0.05640589
Pair 0 10, 1 15:     265.18696930
Pair 0 10, 1 16:      -0.11522939
Pair 0 10, 1 17:      -0.84327920
Pair 0 10, 1 18:      -0.01142625
Pair 0 10, 1 19:       0.25649643
Pair 0 10, 1 20:       0.01198083
Pair 0 10, 1 21:       0.06377327
Pair 0 10, 1 22:       0.06754018
Pair 0 10, 1 23:    2399.41609711
Pair 0 10, 1 24:      -0.38893703
Pair 0 10, 1 25:      -0.83100539
Pair 0 10, 1 26:       0.00097944
Pair 0 10, 1 28:       0.02790057
Pair 0 10, 1 29:       0.03997344
Pair 0 10, 1 30:       0.05640589
Pair 0 10, 1 31:     265.18696930
Pair 0 10, 1 32:      -0.11522939
Pair 0 10, 1 33:      -0.84327920
Pair 0 10, 1 34:       0.30510242
Pair 0 10, 1 35:       2.21188476
Pair 0 10, 1 36:       0.01587513
Pair 0 10, 1 37:       0.21485968
Pair 0 10, 1 38:       0.10449862
Pair 0 10, 1 39:     260.78034816
Pair 0 10, 1 40:       1.49947254
Pair 0 10, 1 41:       0.56620292
Pair 0 11, 1 0:      -0.05788568
Pair 0 11, 1 1:       0.00957135
Pair 0 11, 1 2:       0.04707740
Pair 0 11, 1 3:       0.10789371
Pair 0 11, 1 4:      -0.00020769
Pair 0 11, 1 5:       0.00897524
Pair 0 11, 1 6:       0.00613059
Pair 0 11, 1 7:       6.86275350
Pair 0 11, 1 8:       0.72191471
Pair 0 11, 1 9:       0.59533422
Pair 0 11, 1 10:       0.04554075
Pair 0 11, 1 12:       0.01063190
Pair 0 11, 1 13:       0.00985914
Pair 0 11, 1 14:       0.00354856
Pair 0 11, 1 15:       0.91740894
Pair 0 11, 1 16:       0.76920863
Pair 0 11, 1 17:       0.60019837
Pair 0 11, 1 18:       0.04707740
Pair 0 11, 1 19:       0.10789371
Pair 0 11, 1 20:      -0.00020769
Pair 0 11, 1 21:       0.00897524
Pair 0 11, 1 22:       0.00613059
Pair 0 11, 1 23:       6.86275350
Pair 0 11, 1 24:       0.72191471
Pair 0 11, 1 25:       0.59533422
Pair 0 11, 1 26:       0.04554075
Pair 0 11, 1 28:       0.01063190
Pair 0 11, 1 29:       0.00985914
Pair 0 11, 1 30:       0.00354856
Pair 0 11, 1 31:       0.91740894
Pair 0 11, 1 32:       0.76920863
Pair 0 11, 1 33:       0.60019837
Pair 0 11, 1 34:      -0.06437058
Pair 0 11, 1 35:      -0.26337095
Pair 0 11, 1 36:      -0.07981335
Pair 0 11, 1 37:      -0.04874438
Pair 0 11, 1 38:      -0.05568792
Pair 0 11, 1 39:       0.15303095
Pair 0 11, 1 40:       0.52480423
Pair 0 11, 1 41:       0.30899066
Pair 0 12, 1 0:      -0.08002165
Pair 0 12, 1 1:      -0.00894865
Pair 0 12, 1 2:       0.02346194
Pair 0 12, 1 3:      -0.06376901
Pair 0 12, 1 4:      -0.02155774
Pair 0 12, 1 5:      -0.00942053
Pair 0 12, 1 6:      -0.01817253
Pair 0 12, 1 7:       5.97401850
Pair 0 12, 1 8:       0.70871314
Pair 0 12, 1 9:       0.57401417
Pair 0 12, 1 10:       0.02010660
Pair 0 12, 1 12:      -0.01386438
Pair 0 12, 1 13:      -0.00791098
Pair 0 12, 1 14:      -0.02283696
Pair 0 12, 1 15:       0.58667017
Pair 0 12, 1 16:       0.75348689
Pair 0 12, 1 17:       0.58276102
Pair 0 12, 1 18:       0.02346194
Pair 0 12, 1 19:      -0.06376901
Pair 0 12, 1 20:      -0.02155774
Pair 0 12, 1 21:      -0.00942053
Pair 0 12, 1 22:      -0.01817253
Pair 0 12, 1 23:       5.97401850
Pair 0 12, 1 24:       0.70871314
Pair 0 12, 1 25:       0.57401417
Pair 0 12, 1 26:       0.02010660
Pair 0 12, 1 28:      -0.01386438
Pair 0 12, 1 29:      -0.00791098
Pair 0 12, 1 30:      -0.02283696
Pair 0 12, 1 31:       0.58667017
Pair 0 12, 1 32:       0.75348689
Pair 0 12, 1 33:       0.58276102
Pair 0 12, 1 34:      -0.07453606
Pair 0 12, 1 35:       0.20919228
Pair 0 12, 1 36:      -0.09830211
Pair 0 12, 1 37:      -0.07166784
Pair 0 12, 1 38:      -0.07768136
Pair 0 12, 1 39:       0.82347293
Pair 0 12, 1 40:       0.51357726
Pair 0 12, 1 41:       0.31549744
Pair 0 13, 1 0:      -0.07515957
Pair 0 13, 1 1:      -0.01002052
Pair 0 13, 1 2:       0.00422914
Pair 0 13, 1 3:       0.04366896
Pair 0 13, 1 4:      -0.02308781
Pair 0 13, 1 5:      -0.01014138
Pair 0 13, 1 6:      -0.01895087
Pair 0 13, 1 7:       6.04122168
Pair 0 13, 1 8:       0.68450457
Pair 0 13, 1 9:       0.56126582
Pair 0 13, 1 10:       0.00318380
Pair 0 13, 1 12:      -0.01534243
Pair 0 13, 1 13:      -0.00944555
Pair 0 13, 1 14:      -0.02456260
Pair 0 13, 1 15:       0.27538513
Pair 0 13, 1 16:       0.72638475
Pair 0 13, 1 17:       0.56912099
Pair 0 13, 1 18:       0.00422914
Pair 0 13, 1 19:       0.04366896
Pair 0 13, 1 20:      -0.02308781
Pair 0 13, 1 21:      -0.01014138
Pair 0 13, 1 22:      -0.01895087
Pair 0 13, 1 23:       6.04122168
Pair 0 13, 1 24:       0.68450457
Pair 0 13, 1 25:       0.56126582
Pair 0 13, 1 26:       0.00318380
Pair 0 13, 1 28:      -0.01534243
Pair 0 13, 1 29:      -0.00944555
Pair 0 13, 1 30:      -0.02456260
Pair 0 13, 1 31:       0.27538513
Pair 0 13, 1 32:       0.72638475
Pair 0 13, 1 33:       0.56912099
Pair 0 13, 1 34:      -0.04695949
Pair 0 13, 1 35:       0.86419824
Pair 0 13, 1 36:      -0.09792691
Pair 0 13, 1 37:      -0.06789211
Pair 0 13, 1 38:      -0.07485857
Pair 0 13, 1 39:       1.70130955
Pair 0 13, 1 40:       0.53260074
Pair 0 13, 1 41:       0.34456055
Pair 0 14, 1 0:      -0.03588473
Pair 0 14, 1 1:      -0.06147639
Pair 0 14, 1 2:      -0.03559081
Pair 0 14, 1 3:      -0.52457051
Pair 0 14, 1 4:      -0.01081466
Pair 0 14, 1 5:      -0.05254305
Pair 0 14, 1 6:      -0.06399145
Pair 0 14, 1 7:     140.90660541
Pair 0 14, 1 8:      -1.27193658
Pair 0 14, 1 9:      -0.24261535
Pair 0 14, 1 10:      -0.04641296
Pair 0 14, 1 12:      -0.04433248
Pair 0 14, 1 13:      -0.05236673
Pair 0 14, 1 14:      -0.07822574
Pair 0 14, 1 15:      36.19736105
Pair 0 14, 1 16:      -1.01193595
Pair 0 14, 1 17:       0.32282933
Pair 0 14, 1 18:      -0.03559081
Pair 0 14, 1 19:      -0.52457051
Pair 0 14, 1 20:      -0.01081466
Pair 0 14, 1 21:      -0.05254305
Pair 0 14, 1 22:      -0.06399145
Pair 0 14, 1 23:     140.90660541
Pair 0 14, 1 24:      -1.27193658
Pair 0 14, 1 25:      -0.24261535
Pair 0 14, 1 26:      -0.04641296
Pair 0 14, 1 28:      -0.04433248
Pair 0 14, 1 29:      -0.05236673
Pair 0 14, 1 30:      -0.07822574
Pair 0 14, 1 31:      36.19736105
Pair 0 14, 1 32:      -1.01193595
Pair 0 14, 1 33:       0.32282933
Pair 0 14, 1 34:       0.04581099
Pair 0 14, 1 35:       0.45817779
Pair 0 14, 1 36:       0.26746219
Pair 0 14, 1 37:      -0.03174246
Pair 0 14, 1 38:       0.01131995
Pair 0 14, 1 39:      41.44568912
Pair 0 14, 1 40:       0.04784268
Pair 0 14, 1 41:       2.95174726
Pair 0 15, 1 0:      -0.03095203
Pair 0 15, 1 1:       0.15952531
Pair 0 15, 1 2:       0.21537799
Pair 0 15, 1 3:      -0.60738280
Pair 0 15, 1 4:       0.17584903
Pair 0 15, 1 5:       0.20134879
Pair 0 15, 1 6:       0.10377440
Pair 0 15, 1 7:   16178.92907813
Pair 0 15, 1 8:       0.75311039
Pair 0 15, 1 9:       1.41345710
Pair 0 15, 1 10:       0.19939947
Pair 0 15, 1 12:       0.15133756
Pair 0 15, 1 13:       0.18971168
Pair 0 15, 1 14:       0.08280558
Pair 0 15, 1 15:    7172.93644504
Pair 0 15, 1 16:       1.50172517
Pair 0 15, 1 17:       1.51653486
Pair 0 15, 1 18:       0.21537799
Pair 0 15, 1 19:      -0.60738280
Pair 0 15, 1 20:       0.17584903
Pair 0 15, 1 21:       0.20134879
Pair 0 15, 1 22:       0.10377440
Pair 0 15, 1 23:   16178.92907813
Pair 0 15, 1 24:       0.75311039
Pair 0 15, 1 25:       1.41345710
Pair 0 15, 1 26:       0.19939947
Pair 0 15, 1 28:       0.15133756
Pair 0 15, 1 29:       0.18971168
Pair 0 15, 1 30:       0.08280558
Pair 0 15, 1 31:    7172.93644504
Pair 0 15, 1 32:       1.50172517
Pair 0 15, 1 33:       1.51653486
Pair 0 15, 1 34:       0.00972938
Pair 0 15, 1 35:       0.21399189
Pair 0 15, 1 36:       0.00309718
Pair 0 15, 1 37:       0.02135386
Pair 0 15, 1 38:      -0.13251214
Pair 0 15, 1 39:    4701.21951298
Pair 0 15, 1 40:       1.63224565
Pair 0 15, 1 41:       0.80544411
Pair 0 16, 1 0:      -0.06698087
Pair 0 16, 1 1:       0.00614680
Pair 0 16, 1 2:       0.03905366
Pair 0 16, 1 3:       0.08782139
Pair 0 16, 1 4:      -0.00463450
Pair 0 16, 1 5:       0.00412837
Pair 0 16, 1 6:      -0.00481022
Pair 0 16, 1 7:       6.56976370
Pair 0 16, 1 8:       0.70032745
Pair 0 16, 1 9:       0.57142720
Pair 0 16, 1 10:       0.03741157
Pair 0 16, 1 12:       0.00390979
Pair 0 16, 1 13:       0.00632009
Pair 0 16, 1 14:      -0.01100032
Pair 0 16, 1 15:       0.77953947
Pair 0 16, 1 16:       0.74737793
Pair 0 16, 1 17:       0.57997519
Pair 0 16, 1 18:       0.03905366
Pair 0 16, 1 19:       0.08782139
Pair 0 16, 1 20:      -0.00463450
Pair 0 16, 1 21:       0.00412837
Pair 0 16, 1 22:      -0.00481022
Pair 0 16, 1 23:       6.56976370
Pair 0 16, 1 24:       0.70032745
Pair 0 16, 1 25:       0.57142720
Pair 0 16, 1 26:       0.03741157
Pair 0 16, 1 28:       0.00390979
Pair 0 16, 1 29:       0.00632009
Pair 0 16, 1 30:      -0.01100032
Pair 0 16, 1 31:       0.77953947
Pair 0 16, 1 32:       0.74737793
Pair 0 16, 1 33:       0.57997519
Pair 0 16, 1 34:      -0.07646700
Pair 0 16, 1 35:      -0.26289412
Pair 0 16, 1 36:      -0.07938488
Pair 0 16, 1 37:      -0.05835838
Pair 0 16, 1 38:      -0.06589257
Pair 0 16, 1 39:       0.25661439
Pair 0 16, 1 40:       0.51028512
Pair 0 16, 1 41:       0.31143266
Pair 0 19, 1 0:      -0.03935611
Pair 0 19, 1 1:       0.02019763
Pair 0 19, 1 2:       0.12590824
Pair 0 19, 1 3:      -0.46704827
Pair 0 19, 1 4:      -0.07007352
Pair 0 19, 1 5:       0.02507491
Pair 0 19, 1 6:      -0.02283240
Pair 0 19, 1 7:      99.91142645
Pair 0 19, 1 8:       0.48823826
Pair 0 19, 1 9:      -1.65552349
Pair 0 19, 1 10:       0.11273040
Pair 0 19, 1 12:      -0.08190463
Pair 0 19, 1 13:       0.01403206
Pair 0 19, 1 14:      -0.03634920
Pair 0 19, 1 15:      23.78029457
Pair 0 19, 1 16:       0.70937173
Pair 0 19, 1 17:      -1.60661686
Pair 0 19, 1 18:       0.12590824
Pair 0 19, 1 19:      -0.46704827
Pair 0 19, 1 20:      -0.07007352
Pair 0 19, 1 21:       0.02507491
Pair 0 19, 1 22:      -0.02283240
Pair 0 19, 1 23:      99.91142645
Pair 0 19, 1 24:       0.48823826
Pair 0 19, 1 25:      -1.65552349
Pair 0 19, 1 26:       0.11273040
Pair 0 19, 1 28:      -0.08190463
Pair 0 19, 1 29:       0.01403206
Pair 0 19, 1 30:      -0.03634920
Pair 0 19, 1 31:      23.78029457
Pair 0 19, 1 32:       0.70937173
Pair 0 19, 1 33:      -1.60661686
Pair 0 19, 1 34:       0.03249657
Pair 0 19, 1 35:      -0.30592435
Pair 0 19, 1 36:      -0.16331720
Pair 0 19, 1 37:      -0.02571336
Pair 0 19, 1 38:      -0.09168281
Pair 0 19, 1 39:      28.28226892
Pair 0 19, 1 40:       1.33225321
Pair 0 19, 1 41:      -1.94599171
Pair 0 20, 1 0:       0.24529948
Pair 0 20, 1 1:       0.06118325
Pair 0 20, 1 2:      -0.01142625
Pair 0 20, 1 3:       0.25649643
Pair 0 20, 1 4:       0.01198083
Pair 0 20, 1 5:       0.06377327
Pair 0 20, 1 6:       0.06754018
Pair 0 20, 1 7:    2399.41609711
Pair 0 20, 1 8:      -0.38893703
Pair 0 20, 1 9:      -0.83100539
Pair 0 20, 1 10:       0.00097944
Pair 0 20, 1 12:       0.02790057
Pair 0 20, 1 13:       0.03997344
Pair 0 20, 1 14:       0.05640589
Pair 0 20, 1 15:     265.18696930
Pair 0 20, 1 16:      -0.11522939
Pair 0 20, 1 17:      -0.84327920
Pair 0 20, 1 18:      -0.01142625
Pair 0 20, 1 19:       0.25649643
Pair 0 20, 1 20:       0.01198083
Pair 0 20, 1 21:       0.06377327
Pair 0 20, 1 22:       0.06754018
Pair 0 20, 1 23:    2399.41609711
Pair 0 20, 1 24:      -0.38893703
Pair 0 20, 1 25:      -0.83100539
Pair 0 20, 1 26:       0.00097944
Pair 0 20, 1 28:       0.02790057
Pair 0 20, 1 29:       0.03997344
Pair 0 20, 1 30:       0.05640589
Pair 0 20, 1 31:     265.18696930
Pair 0 20, 1 32:      -0.11522939
Pair 0 20, 1 33:      -0.84327920
Pair 0 20, 1 34:       0.30510242
Pair 0 20, 1 35:       2.21188476
Pair 0 20, 1 36:       0.01587513
Pair 0 20, 1 37:       0.21485968
Pair 0 20, 1 38:       0.10449862
Pair 0 20, 1 39:     260.78034816
Pair 0 20, 1 40:       1.49947254
Pair 0 20, 1 41:       0.56620292
Pair 0 21, 1 0:      -0.05788568
Pair 0 21, 1 1:       0.00957135
Pair 0 21, 1 2:       0.04707740
Pair 0 21, 1 3:       0.10789371
Pair 0 21, 1 4:      -0.00020769
Pair 0 21, 1 5:       0.00897524
Pair 0 21, 1 6:       0.00613059
Pair 0 21, 1 7:       6.86275350
Pair 0 21, 1 8:       0.72191471
Pair 0 21, 1 9:       0.59533422
Pair 0 21, 1 10:       0.04554075
Pair 0 21, 1 12:       0.01063190
Pair 0 21, 1 13:       0.00985914
Pair 0 21, 1 14:       0.00354856
Pair 0 21, 1 15:       0.91740894
Pair 0 21, 1 16:       0.76920863
Pair 0 21, 1 17:       0.60019837
Pair 0 21, 1 18:       0.04707740
Pair 0 21, 1 19:       0.10789371
Pair 0 21, 1 20:      -0.00020769
Pair 0 21, 1 21:       0.00897524
Pair 0 21, 1 22:       0.00613059
Pair 0 21, 1 23:       6.86275350
Pair 0 21, 1 24:       0.72191471
Pair 0 21, 1 25:       0.59533422
Pair 0 21, 1 26:       0.04554075
Pair 0 21, 1 28:       0.01063190
Pair 0 21, 1 29:       0.00985914
Pair 0 21, 1 30:       0.00354856
Pair 0 21, 1 31:       0.91740894
Pair 0 21, 1 32:       0.76920863
Pair 0 21, 1 33:       0.60019837
Pair 0 21, 1 34:      -0.06437058
Pair 0 21, 1 35:      -0.26337095
Pair 0 21, 1 36:      -0.07981335
Pair 0 21, 1 37:      -0.04874438
Pair 0 21, 1 38:      -0.05568792
Pair 0 21, 1 39:       0.15303095
Pair 0 21, 1 40:       0.52480423
Pair 0 21, 1 41:       0.30899066
Pair 0 22, 1 0:       0.43394673
Pair 0 22, 1 1:      -0.06743311
Pair 0 22, 1 2:      -0.10820621
Pair 0 22, 1 3:       0.77969869
Pair 0 22, 1 4:      -0.05267201
Pair 0 22, 1 5:      -0.02938497
Pair 0 22, 1 6:      -0.05296003
Pair 0 22, 1 7:       4.97166846
Pair 0 22, 1 8:       0.67650982
Pair 0 22, 1 9:       0.57335180
Pair 0 22, 1 10:      -0.08891447
Pair 0 22, 1 12:      -0.07534014
Pair 0 22, 1 13:      -0.06546878
Pair 0 22, 1 14:      -0.07170425
Pair 0 22, 1 15:       2.07147315
Pair 0 22, 1 16:       0.67083756
Pair 0 22, 1 17:       0.59339756
Pair 0 22, 1 18:      -0.10820621
Pair 0 22, 1 19:       0.77969869
Pair 0 22, 1 20:      -0.05267201
Pair 0 22, 1 21:      -0.02938497
Pair 0 22, 1 22:      -0.05296003
Pair 0 22, 1 23:       4.97166846
Pair 0 22, 1 24:       0.67650982
Pair 0 22, 1 25:       0.57335180
Pair 0 22, 1 26:      -0.08891447
Pair 0 22, 1 28:      -0.07534014
Pair 0 22, 1 29:      -0.06546878
Pair 0 22, 1 30:      -0.07170425
Pair 0 22, 1 31:       2.07147315
Pair 0 22, 1 32:       0.67083756
Pair 0 22, 1 33:       0.59339756
Pair 0 22, 1 34:       0.60211478
Pair 0 22, 1 35:       3.20672074
Pair 0 22, 1 36:       0.36837872
Pair 0 22, 1 37:       0.42418325
Pair 0 22, 1 38:       0.34590663
Pair 0 22, 1 39:       8.43560431
Pair 0 22, 1 40:       1.47514976
Pair 0 22, 1 41:       1.30740121
Pair 0 23, 1 0:       0.43394673
Pair 0 23, 1 1:      -0.06743311
Pair 0 23, 1 2:      -0.10820621
Pair 0 23, 1 3:       0.77969869
Pair 0 23, 1 4:      -0.05267201
Pair 0 23, 1 5:      -0.02938497
Pair 0 23, 1 6:      -0.05296003
Pair 0 23, 1 7:       4.97166846
Pair 0 23, 1 8:       0.67650982
Pair 0 23, 1 9:       0.57335180
Pair 0 23, 1 10:      -0.08891447
Pair 0 23, 1 12:      -0.07534014
Pair 0 23, 1 13:      -0.06546878
Pair 0 23, 1 14:      -0.07170425
Pair 0 23, 1 15:       2.07147315
Pair 0 23, 1 16:       0.67083756
Pair 0 23, 1 17:       0.59339756
Pair 0 23, 1 18:      -0.10820621
Pair 0 23, 1 19:       0.77969869
Pair 0 23, 1 20:      -0.05267201
Pair 0 23, 1 21:      -0.02938497
Pair 0 23, 1 22:      -0.05296003
Pair 0 23, 1 23:       4.97166846
Pair 0 23, 1 24:       0.67650982
Pair 0 23, 1 25:       0.57335180
Pair 0 23, 1 26:      -0.08891447
Pair 0 23, 1 28:      -0.07534014
Pair 0 23, 1 29:      -0.06546878
Pair 0 23, 1 30:      -0.07170425
Pair 0 23, 1 31:       2.07147315
Pair 0 23, 1 32:       0.67083756
Pair 0 23, 1 33:       0.59339756
Pair 0 23, 1 34:       0.60211478
Pair 0 23, 1 35:       3.20672074
Pair 0 23, 1 36:       0.36837872
Pair 0 23, 1 37:       0.42418325
Pair 0 23, 1 38:       0.34590663
Pair 0 23, 1 39:       8.43560431
Pair 0 23, 1 40:       1.47514976
Pair 0 23, 1 41:       1.30740121
Pair 0 24, 1 0:       1.04190954
Pair 0 24, 1 1:      -0.08169025
Pair 0 24, 1 2:      -0.27803610
Pair 0 24, 1 3:       1.13859393
Pair 0 24, 1 4:       0.19184644
Pair 0 24, 1 5:      -0.03367388
Pair 0 24, 1 6:      -0.01544845
Pair 0 24, 1 7:     125.47198435
Pair 0 24, 1 8:       1.20495052
Pair 0 24, 1 9:       2.15631956
Pair 0 24, 1 10:      -0.27255150
Pair 0 24, 1 12:       0.14712111