Self 0 0:     -39.24870337
Self 0 3:     -31.85505017
Self 0 1:     -33.64531693
Self 0 4:     -39.62838028
Self 0 5:     -36.61368804
Self 1 0:      85.95305522
Self 0 2:     -13.07103435
Self 0 6:     -38.47459300
Self 2 0:       2.93273802
Self 1 3:      19.69290509
Self 1 1:      13.22512913
Self 1 2:      42.56794350
Self 1 4:       9.77435157
Self 2 3:       1.07974847
Self 2 4:     390.35062132
Self 2 2:       0.51583251
Self 2 1:       3.12515012
Self 2 5:     390.75559182
Self 2 6:    7005.44082964
Self 2 7:    7004.97467876
Self 3 1:      14.34139080
Self 3 0:      16.55559249
Self 3 3:      13.59480825
Self 3 2:      13.80084690
Self 3 4:      15.79435725
Self 3 6:      15.66491433
Self 4 0:     133.33802761
Self 3 5:      13.96328043
Self 4 1:    3155.18871995
Self 4 2:     -15.30586472
Self 4 5:       9.05876716
Self 4 3:     -21.35068500
Self 4 4:     -19.37134545
Self 4 6:     -18.03026152
Self 4 7:     -17.20131137
Self 4 8:     -15.89644567
Self 5 1:   67148.75893642
Self 5 0:    1256.08768292
Self 5 3:      96.74161121
Self 5 2:     198.90133089
Self 5 5:   32943.12702001
Self 5 4:   44261.00143082
Self 6 0:     131.93295439
Self 5 6:   23498.84530291
Self 6 1:       8.76762477
Self 6 2:      11.46102900
Self 7 1:      -9.26864764
Self 6 4:       7.91972263
Self 7 0:      -6.63901075
Self 6 3:      12.04427400
Self 7 2:      -5.00937617
Self 7 5:     -12.79347170
Self 7 6:      -4.35551479
Self 7 3:      55.42125553
Self 7 4:      -5.84906823
Self 7 8:      -8.60462317
Self 7 7:      -4.17104244
Self 7 9:      -2.28917462
Self 7 10:      -5.36163630
Self 7 11:      -2.14049605
Self 7 13:      -0.98087398
Self 7 12:      -8.05913786
Self 7 17:      -3.78873468
Self 7 14:      -4.17051273
Self 7 18:      -7.69803180
Self 7 16:      33.90701961
Self 7 15:       3.72507950
Self 7 20:      -5.85158286
Self 7 21:      -5.43540132
Self 7 19:      -3.33822651
Self 7 22:     -15.13039901
Self 7 23:      -5.31095641
Self 7 24:      -5.52686852
Self 7 25:      -9.11927128
Self 7 26:      -7.16409024
Self 8 3:      61.24643595
Self 8 0:     916.74120835
Self 8 1:     916.74120835
Self 8 2:      61.24643595
Self 9 0:      17.91152456
Self 8 4:      17.66933007
Self 9 1:       9.56571876
Self 9 5:      10.56534195
Self 9 6:      -3.57529099
Self 9 3:      11.57756046
Self 9 2:      11.25981956
Self 9 4:      18.08286917
Self 9 9:       0.41991174
Self 9 7:       0.46805385
Self 9 10:      -5.58741142
Self 9 8:       1.75446018
Self 9 14:      -7.62395204
Self 9 13:      -5.81706748
Self 9 11:      -1.33721162
Self 9 12:      -3.52545799
Self 9 16:      -7.22818553
Self 9 15:      -8.47584753
Self 10 0:       6.84834004
Self 9 17:      -7.85061738
Self 10 1:       3.08542853
Self 10 4:      13.83085431
Self 10 2:       1.04948075
Self 10 3:      -0.22483690
Self 10 6:      -2.95339031
Self 10 5:       3.59318477
Self 10 9:      -0.87863505
Self 10 7:      -4.28130267
Self 10 8:      -3.33783861
Self 10 10:      -3.93791869
Self 10 14:      18.84939713
Self 10 11:      -0.75231640
Self 10 12:      25.85653315
Self 10 13:      25.81893701
Self 10 15:      17.28272831
Self 10 17:      25.92583520
Self 10 16:      79.52097663
Self 11 0:     -43.61676909
Self 11 2:      -2.76783612
Self 11 1:     -32.83731207
Self 11 7:      42.26332432
Self 11 3:     -39.06702307
Self 11 4:     -55.27284395
Self 11 8:      41.21360290
Self 11 5:     -29.37843238
Self 11 6:       7.33596997
Self 11 10:      47.59567630
Self 11 12:      -9.25644494
Self 11 13:      -8.08646657
Self 11 11:      34.50085745
Self 11 9:    6285.03606320
Self 11 15:      -4.92222403
Self 11 16:       5.01258040
Self 11 14:      -2.91813599
Self 11 18:      -5.03932576
Self 11 17:      -2.57923423
Self 11 19:      -1.98181716
Self 11 22:     -18.38862361
Self 11 21:     -23.03849821
Self 11 20:     -20.26027607
Self 11 24:     -27.04879480
Self 11 27:     -33.93668868
Self 11 23:     -34.53748382
Self 11 25:     -24.67308851
Self 11 26:     -28.61413463
Self 11 29:     -28.09632572
Self 11 28:     -33.07663910
Self 11 30:     -28.27050711
Self 12 1:      -1.24902399
Self 11 31:     188.82442043
Self 11 33:     -21.91225688
Self 12 0:       2.09222220
Self 11 32:     -24.50947259
Self 12 3:      -0.22424361
Self 12 2:      -0.27809280
Self 12 4:       1.34443143
Self 12 5:       0.34182857
Self 12 7:       1.55134953
Self 12 8:       1.74094285
Self 12 6:       1.52956537
Self 12 11:       1.01426926
Self 12 9:       1.06281295
Self 12 12:       2.14102772
Self 12 10:      -0.40392882
Self 12 16:      -2.13216690
Self 12 13:      -0.57676707
Self 12 15:      -3.69258755
Self 12 14:      -3.09161378
Self 12 17:      -2.99384995
Pair 0 0, 1 2:       0.16833648
Pair 0 0, 2 0:       0.22198187
Pair 0 0, 1 3:       4.76327535
Pair 0 0, 1 0:       0.24601241
Pair 0 0, 1 1:       0.14244850
Pair 0 0, 1 4:      -0.24725265
Pair 0 0, 2 1:      -0.29077963
Pair 0 0, 2 3:      -0.02521924
Pair 0 0, 2 4:       0.02162124
Pair 0 0, 2 2:       0.01712829
Pair 0 0, 2 6:       0.27813730
Pair 0 0, 2 5:       0.07006579
Pair 0 0, 3 0:       0.08646221
Pair 0 0, 3 2:       0.08567927
Pair 0 0, 2 7:       0.18594013
Pair 0 0, 3 3:       0.08881139
Pair 0 0, 3 1:       0.08963010
Pair 0 0, 3 4:       0.08921871
Pair 0 0, 3 5:       0.09935486
Pair 0 0, 3 6:       0.09658304
Pair 0 0, 4 3:       0.01510380
Pair 0 0, 4 0:       0.07099033
Pair 0 0, 4 1:      -0.20109360
Pair 0 0, 4 2:       0.11968994
Pair 0 0, 4 4:       0.13326044
Pair 0 0, 4 5:       0.08591308
Pair 0 0, 4 6:       0.27602090
Pair 0 0, 4 8:      -0.06120335
Pair 0 0, 4 7:       0.24085865
Pair 0 0, 5 0:      -0.03185849
Pair 0 0, 5 1:      -0.02598609
Pair 0 0, 5 2:       0.06054681
Pair 0 0, 5 3:       0.05076821
Pair 0 0, 5 6:       0.02550741
Pair 0 0, 5 4:      -0.11859515
Pair 0 0, 5 5:       0.08030301
Pair 0 0, 6 0:       0.06610132
Pair 0 0, 6 3:       0.06790785
Pair 0 0, 6 2:       0.06428692
Pair 0 0, 6 1:       0.06614857
Pair 0 0, 6 4:       0.07061799
Pair 0 0, 7 0:       1.68577834
Pair 0 0, 7 1:       1.50086479
Pair 0 0, 7 3:       1.70216604
Pair 0 0, 7 6:       1.07413960
Pair 0 0, 7 5:       1.08228728
Pair 0 0, 7 2:       1.70035371
Pair 0 0, 7 4:       1.46565932
Pair 0 0, 7 7:       1.15484438
Pair 0 0, 7 10:       1.18257644
Pair 0 0, 7 8:       1.30490996
Pair 0 0, 7 9:       1.43131455
Pair 0 0, 7 11:       1.27451520
Pair 0 0, 7 13:       1.39324956
Pair 0 0, 7 15:       1.29345340
Pair 0 0, 7 12:       1.19996723
Pair 0 0, 7 14:       1.25754970
Pair 0 0, 7 17:       1.42005854
Pair 0 0, 7 16:       1.33654367
Pair 0 0, 7 20:       1.36744464
Pair 0 0, 7 18:       1.52956496
Pair 0 0, 7 19:       1.53673628
Pair 0 0, 7 21:       1.68113112
Pair 0 0, 7 23:       1.33741688
Pair 0 0, 7 25:       1.27896356
Pair 0 0, 7 22:       1.65615431
Pair 0 0, 7 24:       1.20727243
Pair 0 0, 8 0:      -0.87473404
Pair 0 0, 7 26:       1.16567320
Pair 0 0, 8 2:      -0.75694647
Pair 0 0, 8 3:      -0.75694647
Pair 0 0, 8 1:      -0.87473404
Pair 0 0, 8 4:      -0.93796862
Pair 0 0, 9 0:       0.04275918
Pair 0 0, 9 1:       0.03935599
Pair 0 0, 9 3:       0.03326725
Pair 0 0, 9 4:       0.03820113
Pair 0 0, 9 2:       0.03522204
Pair 0 0, 9 5:       0.03411148
Pair 0 0, 9 7:       0.03928881
Pair 0 0, 9 6:       0.04307264
Pair 0 0, 9 9:       0.04547491
Pair 0 0, 9 8:       0.04019932
Pair 0 0, 9 10:       0.04801301
Pair 0 0, 9 11:       0.04977849
Pair 0 0, 9 12:       0.04229208
Pair 0 0, 9 16:       0.03898069
Pair 0 0, 9 13:       0.04709598
Pair 0 0, 9 17:       0.04026290
Pair 0 0, 9 14:       0.04920309
Pair 0 0, 9 15:       0.04546890
Pair 0 0, 10 2:       0.04679290
Pair 0 0, 10 0:       0.04524708
Pair 0 0, 10 1:       0.04149284
Pair 0 0, 10 5:       0.06487764
Pair 0 0, 10 4:       0.06062432
Pair 0 0, 10 7:       0.05309490
Pair 0 0, 10 3:       0.05699001
Pair 0 0, 10 6:       0.04049519
Pair 0 0, 10 8:       0.06134680
Pair 0 0, 10 9:       0.05154995
Pair 0 0, 10 12:       0.02522569
Pair 0 0, 10 10:       0.03388648
Pair 0 0, 10 11:       0.03669058
Pair 0 0, 10 13:       0.02795019
Pair 0 0, 10 17:       0.03965795
Pair 0 0, 10 14:       0.03389198
Pair 0 0, 10 15:       0.03958828
Pair 0 0, 11 1:       0.66038453
Pair 0 0, 10 16:       0.03249929
Pair 0 0, 11 0:       0.70069376
Pair 0 0, 11 3:       0.77286402
Pair 0 0, 11 2:       0.76246746
Pair 0 0, 11 4:       0.79203021
Pair 0 0, 11 6:       0.55398934
Pair 0 0, 11 5:       0.55936914
Pair 0 0, 11 9:       0.45633831
Pair 0 0, 11 7:       0.52129156
Pair 0 0, 11 8:       0.53065234
Pair 0 0, 11 10:       0.46582251
Pair 0 0, 11 12:       0.60499005
Pair 0 0, 11 14:       0.45299956
Pair 0 0, 11 13:       0.64326903
Pair 0 0, 11 11:       0.52649549
Pair 0 0, 11 15:       0.44839703
Pair 0 0, 11 18:       0.55841726
Pair 0 0, 11 19:       0.53618373
Pair 0 0, 11 16:       0.40011132
Pair 0 0, 11 17:       0.60095265
Pair 0 0, 11 23:       0.62102757
Pair 0 0, 11 24:       0.60142012
Pair 0 0, 11 20:       0.53413699
Pair 0 0, 11 21:       0.54850608
Pair 0 0, 11 22:       0.53967178
Pair 0 0, 11 25:       0.57608411
Pair 0 0, 11 26:       0.66644607
Pair 0 0, 11 27:       0.67200811
Pair 0 0, 11 28:       0.66666265
Pair 0 0, 11 29:       0.56617077
Pair 0 0, 11 30:       0.55518269
Pair 0 0, 12 0:      -0.05144491
Pair 0 0, 12 1:      -0.12729463
Pair 0 0, 11 31:       0.57641185
Pair 0 0, 11 32:       0.52007340
Pair 0 0, 11 33:       0.53578822
Pair 0 0, 12 4:       0.06414683
Pair 0 0, 12 5:       0.11144804
Pair 0 0, 12 2:       0.04055114
Pair 0 0, 12 3:       0.12914192
Pair 0 0, 12 6:      -0.09924226
Pair 0 0, 12 9:       0.08140815
Pair 0 0, 12 7:       0.05825517
Pair 0 0, 12 10:      -0.17938978
Pair 0 0, 12 8:       0.09552037
Pair 0 0, 12 13:      -0.06915374
Pair 0 0, 12 12:      -0.05063530
Pair 0 0, 12 14:      -0.04523668
Pair 0 0, 12 11:      -0.01011336
Pair 0 0, 12 16:      -0.01905882
Pair 0 0, 12 15:      -0.01308139
Pair 0 1, 1 0:       0.16185552
Pair 0 1, 1 4:      -0.39587874
Pair 0 0, 12 17:      -0.00050783
Pair 0 1, 1 2:       0.13104484
Pair 0 1, 1 1:       0.12820094
Pair 0 1, 1 3:      17.60515577
Pair 0 1, 2 1:      -0.16291896
Pair 0 1, 2 2:       0.02001634
Pair 0 1, 2 0:       0.24666625
Pair 0 1, 2 7:       0.17177340
Pair 0 1, 2 4:       0.11775797
Pair 0 1, 2 3:      -0.00112423
Pair 0 1, 3 0:       0.04769112
Pair 0 1, 2 5:       0.11389966
Pair 0 1, 2 6:       0.25207973
Pair 0 1, 3 2:       0.04945399
Pair 0 1, 3 1:       0.04270378
Pair 0 1, 3 6:       0.07871799
Pair 0 1, 3 5:       0.08360299
Pair 0 1, 3 3:       0.05438788
Pair 0 1, 3 4:       0.07881308
Pair 0 1, 4 0:       0.20442174
Pair 0 1, 4 3:       0.06541959
Pair 0 1, 4 1:      -0.07975928
Pair 0 1, 4 2:       0.06402171
Pair 0 1, 4 4:       0.17361606
Pair 0 1, 4 5:      -0.25942261
Pair 0 1, 4 8:      -0.04962329
Pair 0 1, 4 7:       0.12024707
Pair 0 1, 4 6:       0.18135192
Pair 0 1, 5 0:      -0.10036878
Pair 0 1, 5 2:       0.03925146
Pair 0 1, 5 4:       0.12392989
Pair 0 1, 5 1:       0.09947731
Pair 0 1, 5 3:       0.04729994
Pair 0 1, 6 0:       0.02151807
Pair 0 1, 5 5:       0.06500042
Pair 0 1, 5 6:      -0.07899035
Pair 0 1, 6 1:       0.04119037
Pair 0 1, 6 2:       0.04048257
Pair 0 1, 7 0:       1.11562273
Pair 0 1, 6 3:       0.03769069
Pair 0 1, 6 4:       0.03964592
Pair 0 1, 7 4:       0.97676908
Pair 0 1, 7 3:       1.06756055
Pair 0 1, 7 1:       0.95502423
Pair 0 1, 7 5:       0.78731304
Pair 0 1, 7 2:       1.06229150
Pair 0 1, 7 6:       0.78893046
Pair 0 1, 7 8:       0.91117548
Pair 0 1, 7 7:       0.83921342
Pair 0 1, 7 11:       0.90674843
Pair 0 1, 7 9:       0.98180423
Pair 0 1, 7 12:       0.85718343
Pair 0 1, 7 10:       0.84671431
Pair 0 1, 7 14:       0.89814837
Pair 0 1, 7 13:       0.98415974
Pair 0 1, 7 16:       0.93641889
Pair 0 1, 7 15:       0.92141556
Pair 0 1, 7 17:       0.99421098
Pair 0 1, 7 18:       1.07048866
Pair 0 1, 7 20:       0.96588125
Pair 0 1, 7 19:       1.07720809
Pair 0 1, 7 22:       1.12166185
Pair 0 1, 7 21:       1.13208919
Pair 0 1, 7 24:       0.87483272
Pair 0 1, 7 25:       0.91295660
Pair 0 1, 7 26:       0.84181692
Pair 0 1, 7 23:       0.95783287
Pair 0 1, 8 0:      -0.62291464
Pair 0 1, 8 1:      -0.62291464
Pair 0 1, 9 0:       0.03614471
Pair 0 1, 8 3:      -0.60340810
Pair 0 1, 8 2:      -0.60340810
Pair 0 1, 8 4:      -0.68390345
Pair 0 1, 9 1:       0.03481188
Pair 0 1, 9 4:       0.03309313
Pair 0 1, 9 2:       0.03207372
Pair 0 1, 9 3:       0.03111055
Pair 0 1, 9 8:       0.03429418
Pair 0 1, 9 7:       0.03454394
Pair 0 1, 9 6:       0.03766084
Pair 0 1, 9 5:       0.03183373
Pair 0 1, 9 9:       0.03673194
Pair 0 1, 9 10:       0.04052213
Pair 0 1, 9 11:       0.03955587
Pair 0 1, 9 13:       0.03923226
Pair 0 1, 9 14:       0.03926236
Pair 0 1, 9 12:       0.03641295
Pair 0 1, 9 16:       0.03377663
Pair 0 1, 9 15:       0.03646854
Pair 0 1, 9 17:       0.03376545
Pair 0 1, 10 0:       0.03461171
Pair 0 1, 10 1:       0.03757630
Pair 0 1, 10 4:       0.04044133
Pair 0 1, 10 2:       0.04046117
Pair 0 1, 10 3:       0.04004718
Pair 0 1, 10 7:       0.03757635
Pair 0 1, 10 5:       0.04182364
Pair 0 1, 10 8:       0.03960086
Pair 0 1, 10 6:       0.03549148
Pair 0 1, 10 9:       0.03705849
Pair 0 1, 10 10:       0.03353378
Pair 0 1, 10 12:       0.02959060
Pair 0 1, 10 11:       0.03410546
Pair 0 1, 10 14:       0.03447411
Pair 0 1, 10 13:       0.03356750
Pair 0 1, 10 15:       0.03538971
Pair 0 1, 10 16:       0.02977968
Pair 0 1, 11 0:       0.65159833
Pair 0 1, 10 17:       0.03622816
Pair 0 1, 11 5:       0.58619458
Pair 0 1, 11 1:       0.63191535
Pair 0 1, 11 2:       0.68497022
Pair 0 1, 11 6:       0.60324085
Pair 0 1, 11 4:       0.68704096
Pair 0 1, 11 3:       0.66339050
Pair 0 1, 11 7:       0.59426990
Pair 0 1, 11 8:       0.59600733
Pair 0 1, 11 11:       0.58524584
Pair 0 1, 11 10:       0.58285970
Pair 0 1, 11 9:       0.57842198
Pair 0 1, 11 15:       0.56346161
Pair 0 1, 11 12:       0.60571238
Pair 0 1, 11 14:       0.57326898
Pair 0 1, 11 13:       0.63241834
Pair 0 1, 11 16:       0.53932054
Pair 0 1, 11 19:       0.59851194
Pair 0 1, 11 17:       0.62104620
Pair 0 1, 11 18:       0.60054672
Pair 0 1, 11 23:       0.61938799
Pair 0 1, 11 20:       0.59577316
Pair 0 1, 11 21:       0.59625602
Pair 0 1, 11 22:       0.59201021
Pair 0 1, 11 25:       0.60305172
Pair 0 1, 11 24:       0.61022967
Pair 0 1, 11 26:       0.63410648
Pair 0 1, 11 27:       0.63865791
Pair 0 1, 11 28:       0.63683031
Pair 0 1, 11 29:       0.59733814
Pair 0 1, 11 32:       0.59061328
Pair 0 1, 11 30:       0.59094160
Pair 0 1, 11 31:       0.59461263
Pair 0 1, 12 0:      -0.00971516
Pair 0 1, 11 33:       0.59757977
Pair 0 1, 12 2:       0.06720285
Pair 0 1, 12 3:       0.10897119
Pair 0 1, 12 1:      -0.04673809
Pair 0 1, 12 4:       0.04148019
Pair 0 1, 12 6:      -0.05748055
Pair 0 1, 12 5:       0.07793384
Pair 0 1, 12 9:       0.11678128
Pair 0 1, 12 8:       0.09972217
Pair 0 1, 12 7:       0.05566682
Pair 0 1, 12 12:       0.00897060
Pair 0 1, 12 10:      -0.09011242
Pair 0 1, 12 14:       0.02853961
Pair 0 1, 12 11:       0.06729269
Pair 0 1, 12 13:      -0.00043193
Pair 0 1, 12 16:       0.02729208
Pair 0 1, 12 15:       0.05704475
Pair 0 1, 12 17:       0.05373243
Pair 0 2, 1 2:      -0.07746936
Pair 0 2, 1 1:      -0.04811473
Pair 0 2, 1 0:      -0.25064958
Pair 0 2, 2 2:       0.11813313
Pair 0 2, 1 3:      -1.03821864
Pair 0 2, 1 4:      -0.47079887
Pair 0 2, 2 1:      -0.60498742
Pair 0 2, 2 0:      -1.14907877
Pair 0 2, 2 3:       0.11176167
Pair 0 2, 2 5:       0.16803725
Pair 0 2, 2 4:       0.19448450
Pair 0 2, 3 0:       0.15152998
Pair 0 2, 2 6:       0.01165873
Pair 0 2, 3 2:       0.15588944
Pair 0 2, 3 3:       0.15852237
Pair 0 2, 2 7:      -0.06738311
Pair 0 2, 3 1:       0.12836275
Pair 0 2, 3 5:       0.14085110
Pair 0 2, 4 0:      -0.01357130
Pair 0 2, 3 4:       0.12574328
Pair 0 2, 4 3:      -0.02954882
Pair 0 2, 3 6:       0.14562674
Pair 0 2, 4 4:       0.07975056
Pair 0 2, 4 1:      -0.30237852
Pair 0 2, 4 2:       0.10922107
Pair 0 2, 4 5:       0.12967025
Pair 0 2, 4 7:       0.17059008
Pair 0 2, 4 6:       0.22892996
Pair 0 2, 4 8:      -0.01658428
Pair 0 2, 5 0:       0.16425482
Pair 0 2, 5 3:       0.02324733
Pair 0 2, 5 1:       0.29133373
Pair 0 2, 5 4:       0.38267131
Pair 0 2, 5 2:       0.03392195
Pair 0 2, 5 6:      -0.13928098
Pair 0 2, 5 5:      -0.00319061
Pair 0 2, 6 3:       0.02919903
Pair 0 2, 6 1:       0.04198130
Pair 0 2, 6 0:       0.03486128
Pair 0 2, 7 0:       1.12912437
Pair 0 2, 6 2:       0.04292869
Pair 0 2, 6 4:       0.02963525
Pair 0 2, 7 2:       1.14035315
Pair 0 2, 7 3:       1.05444648
Pair 0 2, 7 5:       0.75840186
Pair 0 2, 7 1:       0.96199572
Pair 0 2, 7 7:       0.83204920
Pair 0 2, 7 4:       1.00151703
Pair 0 2, 7 8:       0.90460962
Pair 0 2, 7 6:       0.78031759
Pair 0 2, 7 10:       0.84701900
Pair 0 2, 7 9:       1.01670336
Pair 0 2, 7 12:       0.84568640
Pair 0 2, 7 14:       0.90967759
Pair 0 2, 7 11:       0.92399193
Pair 0 2, 7 13:       1.00131367
Pair 0 2, 7 16:       0.87660865
Pair 0 2, 7 15:       0.88898617
Pair 0 2, 7 18:       1.02308794
Pair 0 2, 7 19:       1.05263100
Pair 0 2, 7 17:       0.97335503
Pair 0 2, 7 21:       1.11286557
Pair 0 2, 7 24:       0.85374704
Pair 0 2, 7 20:       0.94297418
Pair 0 2, 7 22:       1.04647305
Pair 0 2, 7 23:       0.93345477
Pair 0 2, 7 25:       0.89262787
Pair 0 2, 8 0:      -0.48044148
Pair 0 2, 7 26:       0.80566556
Pair 0 2, 8 1:      -0.48044148
Pair 0 2, 8 2:      -0.55449464
Pair 0 2, 9 0:       0.03155945
Pair 0 2, 8 3:      -0.55449464
Pair 0 2, 8 4:      -0.62855657
Pair 0 2, 9 1:       0.03233494
Pair 0 2, 9 3:       0.03512907
Pair 0 2, 9 2:       0.03351407
Pair 0 2, 9 5:       0.03731522
Pair 0 2, 9 4:       0.03606394
Pair 0 2, 9 6:       0.03870746
Pair 0 2, 9 8:       0.03652257
Pair 0 2, 9 7:       0.03616043
Pair 0 2, 9 9:       0.03849236
Pair 0 2, 9 11:       0.04002035
Pair 0 2, 9 10:       0.04072102
Pair 0 2, 9 14:       0.04033685
Pair 0 2, 9 12:       0.03738310
Pair 0 2, 9 13:       0.04083446
Pair 0 2, 9 15:       0.03705561
Pair 0 2, 9 17:       0.03426866
Pair 0 2, 9 16:       0.03429248
Pair 0 2, 10 1:       0.03630634
Pair 0 2, 10 0:       0.03328145
Pair 0 2, 10 5:       0.03035571
Pair 0 2, 10 3:       0.03390857
Pair 0 2, 10 2:       0.03633967
Pair 0 2, 10 4:       0.02846435
Pair 0 2, 10 7:       0.03481904
Pair 0 2, 10 6:       0.03549440
Pair 0 2, 10 9:       0.03389342
Pair 0 2, 10 13:       0.04084095
Pair 0 2, 10 8:       0.03307289
Pair 0 2, 10 10:       0.03519335
Pair 0 2, 10 11:       0.03616818
Pair 0 2, 10 12:       0.04182500
Pair 0 2, 10 14:       0.03742055
Pair 0 2, 10 16:       0.03800647
Pair 0 2, 10 15:       0.03468610
Pair 0 2, 11 0:       0.59702574
Pair 0 2, 10 17:       0.03670518
Pair 0 2, 11 4:       0.56798103
Pair 0 2, 11 5:       0.58179052
Pair 0 2, 11 1:       0.61418399
Pair 0 2, 11 3:       0.59199104
Pair 0 2, 11 2:       0.53988741
Pair 0 2, 11 8:       0.58944463
Pair 0 2, 11 9:       0.56340718
Pair 0 2, 11 6:       0.54018023
Pair 0 2, 11 7:       0.59580900
Pair 0 2, 11 11:       0.52563826
Pair 0 2, 11 10:       0.57586949
Pair 0 2, 11 12:       0.59946744
Pair 0 2, 11 13:       0.58081743
Pair 0 2, 11 14:       0.57843244
Pair 0 2, 11 15:       0.59746147
Pair 0 2, 11 17:       0.60870508
Pair 0 2, 11 16:       0.51685329
Pair 0 2, 11 21:       0.60938138
Pair 0 2, 11 20:       0.59099465
Pair 0 2, 11 18:       0.61823250
Pair 0 2, 11 19:       0.59887579
Pair 0 2, 11 25:       0.59658237
Pair 0 2, 11 26:       0.58104635
Pair 0 2, 11 22:       0.57820194
Pair 0 2, 11 23:       0.60339810
Pair 0 2, 11 24:       0.61728751
Pair 0 2, 11 27:       0.61935024
Pair 0 2, 11 28:       0.60204102
Pair 0 2, 11 29:       0.59027086
Pair 0 2, 11 30:       0.58141046
Pair 0 2, 11 31:       0.58010824
Pair 0 2, 12 2:       0.10978827
Pair 0 2, 12 3:       0.12956013
Pair 0 2, 11 32:       0.57625667
Pair 0 2, 12 0:      -0.02925365
Pair 0 2, 11 33:       0.59021952
Pair 0 2, 12 1:      -0.00443390
Pair 0 2, 12 4:       0.03935189
Pair 0 2, 12 5:       0.09830088
Pair 0 2, 12 6:       0.00831286
Pair 0 2, 12 8:      -0.00326016
Pair 0 2, 12 7:       0.00891878
Pair 0 2, 12 12:       0.02442650
Pair 0 2, 12 13:      -0.00585376
Pair 0 2, 12 10:      -0.05696273
Pair 0 2, 12 11:      -0.00784243
Pair 0 2, 12 9:       0.01294386
Pair 0 2, 12 14:       0.00250196
Pair 0 2, 12 16:       0.03721891
Pair 0 2, 12 15:       0.02709059
Pair 0 2, 12 17:       0.03493251
Pair 0 3, 1 0:      -0.21120599
Pair 0 3, 1 3:      -0.81332840
Pair 0 3, 2 1:      -1.52338649
Pair 0 3, 1 1:      -0.03197954
Pair 0 3, 1 2:      -0.03029915
Pair 0 3, 1 4:      -0.33190751
Pair 0 3, 2 0:      -2.09491938
Pair 0 3, 2 3:       0.10242250
Pair 0 3, 2 4:      -0.10014440
Pair 0 3, 2 2:       0.11435295
Pair 0 3, 2 5:       0.00853130
Pair 0 3, 3 1:       0.18817781
Pair 0 3, 2 7:      -0.10944774
Pair 0 3, 3 2:       0.21291981
Pair 0 3, 2 6:      -0.16843886
Pair 0 3, 3 0:       0.19251921
Pair 0 3, 3 5:       0.15331848
Pair 0 3, 3 3:       0.20989549
Pair 0 3, 3 4:       0.11690276
Pair 0 3, 4 1:      -0.46604331
Pair 0 3, 3 6:       0.15390805
Pair 0 3, 4 0:      -0.06701517
Pair 0 3, 4 3:      -0.05141171
Pair 0 3, 4 2:       0.21300466
Pair 0 3, 4 4:       0.01602894
Pair 0 3, 4 5:       0.26953120
Pair 0 3, 5 0:       0.27243027
Pair 0 3, 4 6:       0.27863898
Pair 0 3, 4 7:       0.33967727
Pair 0 3, 4 8:       0.01396061
Pair 0 3, 5 1:      -0.04160090
Pair 0 3, 5 4:       0.12359597
Pair 0 3, 5 2:       0.05548335
Pair 0 3, 6 0:       0.11577934
Pair 0 3, 5 3:       0.05600500
Pair 0 3, 5 5:      -0.01087537
Pair 0 3, 5 6:       0.02745156
Pair 0 3, 6 1:       0.08436498
Pair 0 3, 6 4:       0.08332802
Pair 0 3, 6 2:       0.08403754
Pair 0 3, 6 3:       0.08405628
Pair 0 3, 7 0:       1.94655916
Pair 0 3, 7 1:       1.81581460
Pair 0 3, 7 2:       2.06699363
Pair 0 3, 7 3:       2.03962705
Pair 0 3, 7 4:       1.72205777
Pair 0 3, 7 7:       1.31122571
Pair 0 3, 7 8:       1.52278765
Pair 0 3, 7 6:       1.21932953
Pair 0 3, 7 10:       1.35342594
Pair 0 3, 7 9:       1.67795534
Pair 0 3, 7 5:       1.23198378
Pair 0 3, 7 11:       1.46434284
Pair 0 3, 7 15:       1.40959660
Pair 0 3, 7 13:       1.58074396
Pair 0 3, 7 12:       1.37872053
Pair 0 3, 7 14:       1.43605511
Pair 0 3, 7 18:       1.64771138
Pair 0 3, 7 17:       1.56845131
Pair 0 3, 7 19:       1.66453782
Pair 0 3, 7 16:       1.47190935
Pair 0 3, 7 21:       1.88332583
Pair 0 3, 7 20:       1.49257759
Pair 0 3, 7 22:       1.83018298
Pair 0 3, 7 25:       1.40411717
Pair 0 3, 7 23:       1.45213085
Pair 0 3, 7 24:       1.31377633
Pair 0 3, 8 1:      -1.06994029
Pair 0 3, 7 26:       1.27853021
Pair 0 3, 8 2:      -0.98172008
Pair 0 3, 8 0:      -1.06994029
Pair 0 3, 8 3:      -0.98172008
Pair 0 3, 8 4:      -1.20724954
Pair 0 3, 9 1:       0.04830335
Pair 0 3, 9 0:       0.05089078
Pair 0 3, 9 5:       0.04602735
Pair 0 3, 9 2:       0.04418279
Pair 0 3, 9 3:       0.04171950
Pair 0 3, 9 4:       0.05366336
Pair 0 3, 9 8:       0.05045980
Pair 0 3, 9 7:       0.05171388
Pair 0 3, 9 6:       0.05955845
Pair 0 3, 9 9:       0.05607453
Pair 0 3, 9 10:       0.06402403
Pair 0 3, 9 13:       0.06445304
Pair 0 3, 9 14:       0.06319493
Pair 0 3, 9 11:       0.06259609
Pair 0 3, 9 12:       0.05937175
Pair 0 3, 9 17:       0.05213368
Pair 0 3, 9 15:       0.05711747
Pair 0 3, 9 16:       0.05308023
Pair 0 3, 10 1:       0.05599905
Pair 0 3, 10 0:       0.05342718
Pair 0 3, 10 2:       0.06712812
Pair 0 3, 10 3:       0.07655229
Pair 0 3, 10 4:       0.05346273
Pair 0 3, 10 6:       0.04562316
Pair 0 3, 10 7:       0.05782146
Pair 0 3, 10 5:       0.06502751
Pair 0 3, 10 11:       0.05915789
Pair 0 3, 10 13:       0.04825558
Pair 0 3, 10 8:       0.06920088
Pair 0 3, 10 10:       0.04553035
Pair 0 3, 10 9:       0.07136152
Pair 0 3, 10 12:       0.05267573
Pair 0 3, 10 15:       0.06614518
Pair 0 3, 10 16:       0.05833094
Pair 0 3, 10 14:       0.05618239
Pair 0 3, 10 17:       0.06163513
Pair 0 3, 11 4:       1.00288368
Pair 0 3, 11 3:       1.07740656
Pair 0 3, 11 1:       0.98754514
Pair 0 3, 11 0:       0.94580521
Pair 0 3, 11 2:       1.04828817
Pair 0 3, 11 5:       1.01057132
Pair 0 3, 11 7:       0.86921900
Pair 0 3, 11 9:       0.82601080
Pair 0 3, 11 6:       1.01212445
Pair 0 3, 11 12:       1.04699098
Pair 0 3, 11 8:       0.83090200
Pair 0 3, 11 11:       0.99513198
Pair 0 3, 11 13:       1.00073847
Pair 0 3, 11 10:       0.82714540
Pair 0 3, 11 14:       0.90378273
Pair 0 3, 11 16:       0.91906024
Pair 0 3, 11 19:       0.89602416
Pair 0 3, 11 15:       0.96733829
Pair 0 3, 11 17:       0.93566710
Pair 0 3, 11 18:       0.96098741
Pair 0 3, 11 21:       0.94679958
Pair 0 3, 11 20:       0.88834078
Pair 0 3, 11 23:       0.87984525
Pair 0 3, 11 22:       0.94789765
Pair 0 3, 11 24:       0.91678994
Pair 0 3, 11 25:       0.86445647
Pair 0 3, 11 26:       0.97568013
Pair 0 3, 11 30:       0.80794521
Pair 0 3, 11 27:       0.98032547
Pair 0 3, 11 29:       0.84223623
Pair 0 3, 11 28:       0.94042704
Pair 0 3, 12 0:       0.00886644
Pair 0 3, 11 31:       0.81442267
Pair 0 3, 11 33:       0.85809658
Pair 0 3, 11 32:       0.82245111
Pair 0 3, 12 2:      -0.00131688
Pair 0 3, 12 1:      -0.02773189
Pair 0 3, 12 4:       0.06032459
Pair 0 3, 12 3:       0.04693735
Pair 0 3, 12 7:       0.08736001
Pair 0 3, 12 5:       0.07452510
Pair 0 3, 12 8:       0.07118601
Pair 0 3, 12 6:       0.05677482
Pair 0 3, 12 9:       0.04999427
Pair 0 3, 12 11:      -0.02128475
Pair 0 3, 12 12:       0.02928955
Pair 0 3, 12 10:      -0.05960769
Pair 0 3, 12 14:      -0.04282562
Pair 0 3, 12 13:      -0.00500486
Pair 0 3, 12 17:      -0.06149993
Pair 0 3, 12 16:      -0.00526701
Pair 0 3, 12 15:      -0.06308985
Pair 0 4, 1 0:      -0.22954055
Pair 0 4, 1 1:      -0.10155541
Pair 0 4, 1 4:      -0.29674052
Pair 0 4, 1 2:      -0.07814265
Pair 0 4, 1 3:      -0.63015369
Pair 0 4, 2 0:       0.00677548
Pair 0 4, 2 2:       0.03655802
Pair 0 4, 2 1:      -0.41823578
Pair 0 4, 2 4:      -0.63243379
Pair 0 4, 2 3:      -0.00086004
Pair 0 4, 3 1:       0.11683262
Pair 0 4, 2 6:      -0.19974812
Pair 0 4, 2 5:      -0.23391483
Pair 0 4, 2 7:      -0.07439131
Pair 0 4, 3 0:       0.10984658
Pair 0 4, 3 2:       0.11143818
Pair 0 4, 3 4:       0.06751921
Pair 0 4, 3 5:       0.09101052
Pair 0 4, 3 3:       0.10877612
Pair 0 4, 4 2:       0.10611634
Pair 0 4, 4 1:      -0.30838928
Pair 0 4, 3 6:       0.09328344
Pair 0 4, 4 0:      -0.07894524
Pair 0 4, 4 5:       0.33278941
Pair 0 4, 4 3:      -0.04508361
Pair 0 4, 4 4:       0.03203888
Pair 0 4, 4 7:       0.19215854
Pair 0 4, 4 8:      -0.01956223
Pair 0 4, 4 6:       0.21497925
Pair 0 4, 5 0:       0.14444287
Pair 0 4, 5 1:      -0.14157802
Pair 0 4, 5 2:       0.05672720
Pair 0 4, 5 4:      -0.19068485
Pair 0 4, 5 3:       0.04980981
Pair 0 4, 5 5:       0.02642012
Pair 0 4, 6 1:       0.08726394
Pair 0 4, 6 0:       0.11628547
Pair 0 4, 5 6:       0.05676012
Pair 0 4, 6 2:       0.08584445
Pair 0 4, 6 3:       0.09650658
Pair 0 4, 7 1:       1.56450941
Pair 0 4, 6 4:       0.09534377
Pair 0 4, 7 0:       1.72407379
Pair 0 4, 7 2:       1.75178116
Pair 0 4, 7 3:       1.71234747
Pair 0 4, 7 6:       1.17588233
Pair 0 4, 7 5:       1.18757773
Pair 0 4, 7 7:       1.24150758
Pair 0 4, 7 4:       1.54257979
Pair 0 4, 7 8:       1.36496183
Pair 0 4, 7 10:       1.27652707
Pair 0 4, 7 11:       1.34364908
Pair 0 4, 7 9:       1.48307493
Pair 0 4, 7 12:       1.28041642
Pair 0 4, 7 13:       1.44515644
Pair 0 4, 7 14:       1.34774992
Pair 0 4, 7 15:       1.38695756
Pair 0 4, 7 16:       1.39015192
Pair 0 4, 7 17:       1.46071166
Pair 0 4, 7 19:       1.56358158
Pair 0 4, 7 18:       1.58203910
Pair 0 4, 7 20:       1.44209823
Pair 0 4, 7 22:       1.68674452
Pair 0 4, 7 21:       1.68938390
Pair 0 4, 7 23:       1.40736630
Pair 0 4, 7 25:       1.39103087
Pair 0 4, 7 24:       1.30014216
Pair 0 4, 7 26:       1.25692245
Pair 0 4, 8 1:      -1.02770845
Pair 0 4, 8 0:      -1.02770845
Pair 0 4, 8 2:      -0.89941172
Pair 0 4, 8 4:      -1.06715807
Pair 0 4, 8 3:      -0.89941172
Pair 0 4, 9 0:       0.05231021
Pair 0 4, 9 1:       0.04679947
Pair 0 4, 9 5:       0.04434853
Pair 0 4, 9 2:       0.04203015
Pair 0 4, 9 3:       0.03965666
Pair 0 4, 9 4:       0.05416297
Pair 0 4, 9 6:       0.05757788
Pair 0 4, 9 7:       0.05076353
Pair 0 4, 9 9:       0.05551632
Pair 0 4, 9 8:       0.04976577
Pair 0 4, 9 11:       0.06119681
Pair 0 4, 9 12:       0.05689149
Pair 0 4, 9 10:       0.06089384
Pair 0 4, 9 13:       0.06163773
Pair 0 4, 9 15:       0.05519462
Pair 0 4, 9 14:       0.06120658
Pair 0 4, 9 16:       0.05048913
Pair 0 4, 10 0:       0.05668230
Pair 0 4, 9 17:       0.04959287
Pair 0 4, 10 3:       0.07133996
Pair 0 4, 10 1:       0.05040682
Pair 0 4, 10 2:       0.05757857
Pair 0 4, 10 4:       0.06482038
Pair 0 4, 10 6:       0.04474516
Pair 0 4, 10 5:       0.06993702
Pair 0 4, 10 8:       0.07124350
Pair 0 4, 10 10:       0.04028950
Pair 0 4, 10 7:       0.06119564
Pair 0 4, 10 9:       0.06619490
Pair 0 4, 10 11:       0.05011634
Pair 0 4, 10 12:       0.04327113
Pair 0 4, 10 13:       0.03867803
Pair 0 4, 10 14:       0.04520499
Pair 0 4, 10 15:       0.05320772
Pair 0 4, 10 17:       0.04762722
Pair 0 4, 10 16:       0.04961659
Pair 0 4, 11 0:       0.81189336
Pair 0 4, 11 3:       0.90629169
Pair 0 4, 11 1:       0.82363553
Pair 0 4, 11 2:       0.83474474
Pair 0 4, 11 4:       0.86329200
Pair 0 4, 11 6:       0.74796565
Pair 0 4, 11 5:       0.80015384
Pair 0 4, 11 8:       0.69779394
Pair 0 4, 11 9:       0.66808455
Pair 0 4, 11 7:       0.72125071
Pair 0 4, 11 11:       0.74001448
Pair 0 4, 11 10:       0.67442753
Pair 0 4, 11 14:       0.71827143
Pair 0 4, 11 13:       0.80267317
Pair 0 4, 11 15:       0.76223958
Pair 0 4, 11 12:       0.82476730
Pair 0 4, 11 17:       0.77282088
Pair 0 4, 11 16:       0.69332524
Pair 0 4, 11 18:       0.78451775